----- GAMESS execution script 'rungms' -----
This job is running on host muhka
under operating system Linux at Tue Apr 30 01:54:30 PM CEST 2024
Available scratch disk space (Kbyte units) at beginning of the job is
Filesystem                        1K-blocks     Used  Available Use% Mounted on
/dev/mapper/vg--ctom-lv--scratch 1057840472 19188320 1038652152   2% /scratch
GAMESS temporary binary files will be written to /scratch/humbel.257295
GAMESS supplementary output files will be written to /home/humbel/di-aude/gamess/audeprog
Copying input file ./acro_cas_cs_csf.inp to your run's scratch directory...

 Distributed Data Interface kickoff program.
 Initiating 1 compute processes on 1 nodes to run the following command:
 /home/humbel/fuming/softwares/gamess/2020-R2/gamess.xmvb.x acro_cas_cs_csf 

          *******************************************************
          *                                                     *
          *          GAMESS VERSION = 30 SEP 2020 (R2)          *
          *                                                     *
          *              doi.org/10.1063/5.0005188              *
          *                                                     *
          **************** 64 BIT LINUX VERSION *****************

  GAMESS HAS BEEN MADE POSSIBLE WITH IMPORTANT CONTRIBUTIONS FROM
  THE FOLLOWING INDIVIDUALS (IN ALPHABETICAL ORDER):

     IVANA ADAMOVIC, CHRISTINE AIKENS, TOMOKO AKAMA,
     YURI ALEXEEV, YURIKO AOKI, POOJA ARORA, TOSHIO ASADA,
     ANDREY ASADCHEV, KIM K. BALDRIDGE, PRADIPTA BANDYOPADHYAY,
     MARIA BARYSZ, ROB BELL, JONATHAN BENTZ, COLLEEN BERTONI,
     JERRY A. BOATZ, BRETT BODE, KURT BRORSEN, KURT R. BRORSEN,
     LAIMUTIS BYTAUTAS, CALEB CARLIN, LAURA CARRINGTON,
     GALINA CHABAN, BENOIT CHAMPAGNE, WEI CHEN, MAHITO CHIBA,
     DAN CHIPMAN, CHEOL HO CHOI, TANNER CULPITT,
     DIPAYAN DATTA, PAUL DAY, ALBERT DEFUSCO,
     NUWAN DESILVA, J. EMILIANO DEUSTUA,
     TIM DUDLEY, MICHEL DUPUIS, STEVEN T. ELBERT,
     DMITRI FEDOROV, ALEX FINDLATER, GRAHAM FLETCHER,
     MARK FREITAG, CHRISTIAN FRIEDL, DAVID GARMER,
     IGOR S. GERASIMOV, KURT GLAESEMANN, MARK S. GORDON,
     JEFFREY GOUR, FENG LONG GU, EMILIE B. GUIDEZ,
     ANASTASIA GUNINA, SHARON HAMMES-SCHIFFER, MASATAKE HARUTA,
     KIMIHIKO HIRAO, YASUHIRO IKABATA, TZVETELIN IORDANOV,
     STEPHAN IRLE, KAZUYA ISHIMURA, JOE IVANIC, FRANK JENSEN,
     JAN H. JENSEN, VISVALDAS KAIRYS, MUNEAKI KAMIYA,
     MICHIO KATOUDA, NAOAKI KAWAKAMI, DAN KEMP, BERNARD KIRTMAN,
     KAZUO KITAURA, MARIUSZ KLOBUKOWSKI, MASATO KOBAYASHI,
     PRAKASHAN KORAMBATH, JACEK KORCHOWIEC, SHIRO KOSEKI,
     KAROL KOWALSKI, JIMMY KROMANN, STANISLAW KUCHARSKI,
     HENRY KURTZ, SAROM SOK LEANG, HUI LI, SHUHUA LI, WEI LI,
     JESSE LUTZ, ALEKSANDR O. LYKHIN, MARCIN MAKOWSKI,
     JOANI MATO, NIKITA MATSUNAGA, BENEDETTA MENNUCCI,
     GRANT MERRILL, NORIYUKI MINEZAWA, VLADIMIR MIRONOV,
     EISAKU MIYOSHI, JOHN A. MONTGOMERY JR., HIROTOSHI MORI,
     JONATHAN MULLIN, MONIKA MUSIAL, SHIGERU NAGASE,
     TAKESHI NAGATA, HIROMI NAKAI, TAKAHITO NAKAJIMA,
     YUYA NAKAJIMA, HARUYUKI NAKANO, HIROYA NAKATA, SEAN NEDD,
     HEATHER NETZLOFF, KIET A. NGUYEN, YOSHIO NISHIMOTO,
     BOSILJKA NJEGIC, RYAN OLSON, MIKE PAK, ROBERTO PEVERATI,
     BUU PHAM, PIOTR PIECUCH, ANNA POMOGAEVA, DAVID POOLE,
     SPENCER PRUITT, OLIVIER QUINET, LUKE ROSKOP,
     KLAUS RUEDENBERG, ANDREW SAND, TOSAPORN SATTASATHUCHANA,
     NOZOMI SAWADA, MICHAEL W. SCHMIDT, PATRICK E. SCHNEIDER,
     JUNJI SEINO, PRACHI SHARMA, JUN SHEN, JIM SHOEMAKER,
     YINAN SHU, DEJUN SI, JONATHAN SKONE, LYUDMILA SLIPCHENKO,
     TONY SMITH, JIE SONG, MARK SPACKMAN, CASPER STEINMANN,
     WALT STEVENS, PEIFENG SU, SHUJUN SU, CHET SWALINA,
     TETSUYA TAKETSUGU, ZHEN TAO, NANDUN THELLAMUREGE
     SEIKEN TOKURA, JACOPO TOMASI, TSUGUKI TOUMA, TAKAO TSUNEDA,
     HIROAKI UMEDA, JORGE LUIS GALVEZ VALLEJO, YALI WANG,
     SIMON WEBB, AARON WEST, THERESA L. WINDUS, MARTA WLOCH,
     PENG XU, KIYOSHI YAGI, SUSUMU YANAGISAWA, YANG YANG,
     SOOHAENG YOO, TAKESHI YOSHIKAWA, FEDERICO ZAHARIEV,
     TOBY ZENG

  WHO ARE SUPPORTED BY THEIR INSTITUTION/UNIVERSITY/COMPANY/GROUP
  (IN ALPHABETICAL ORDER):

     EP ANALYTICS, FACULTES UNIVERSITAIRES NOTRE-DAME DE LA PAIX,
     INSTITUTE FOR MOLECULAR SCIENCE, IOWA STATE UNIVERSITY,
     JACKSON STATE UNIVERSITY, JOHANNES KEPLER UNIVERSITY LINZ,
     KYUSHU UNIVERSITY, MICHIGAN STATE UNIVERSITY,
     MIE UNIVERSITY, MOSCOW STATE UNIVERSITY,
     N. COPERNICUS UNIVERSITY, NAGOYA UNIVERSITY,
     NANJING UNIVERSITY, NAT. INST. OF ADVANCED INDUSTRIAL
     SCIENCE AND TECHNOLOGY, NATIONAL INST. OF STANDARDS AND
     TECHNOLOGY, NESMEYANOV INSTITUTE OF ORGANOELEMENT COMPOUNDS
     OF RUSSIAN ACADEMY OF SCIENCES, OSAKA PREFECTURE UNIVERSITY,
     PENNSYLVANIA STATE UNIVERSITY, TOKYO INSTITUTE OF TECHNOLOGY,
     UNIVERSITY OF AARHUS, UNIVERSITY OF ALBERTA,
     UNIVERSITY OF CALIFORNIA AT SANTA BARBARA,
     UNIVERSITY OF COPENHAGEN, UNIVERSITY OF IOWA,
     UNIVERSITY OF MEMPHIS, UNIVERSITY OF MINNESOTA,
     UNIVERSITY OF NEBRASKA, UNIVERSITY OF NEW ENGLAND,
     UNIVERSITY OF NOTRE DAME, UNIVERSITY OF PISA,
     UNIVERSITY OF SILESIA, UNIVERSITY OF TOKYO,
     UNIVERSITY OF ZURICH, WASEDA UNIVERSITY, YALE UNIVERSITY

  GAMESS SOFTWARE MANAGEMENT TEAM FOR THIS RELEASE:
     MARK S. GORDON (TEAM LEAD),
     BRETT BODE (SENIOR ADVISOR),
     GIUSEPPE BARCA,
     COLLEEN BERTONI,
     KRISTOPHER KEIPERT (ADVISOR),
     SAROM S. LEANG (DEVELOPMENT LEAD),
     BUU PHAM,
     JORGE LUIS GALVEZ VALLEJO (WEBSITE ADMINISTRATOR),
     PENG XU

 EXECUTION OF GAMESS BEGUN 13:54:30 30-APR-2024    

            ECHO OF THE FIRST FEW INPUT CARDS -
 INPUT CARD>!   File created by MacMolPlt 7.4.3                                             
 INPUT CARD>! $CONTRL   SCFTYP=NONE CITYP=ALDET RUNTYP=ENERGY                               
 INPUT CARD>! $CONTRL   SCFTYP=RHF  RUNTYP=ENERGY  $END                                     
 INPUT CARD> $CONTRL   SCFTYP=MCSCF RUNTYP=ENERGY  $END                                     
 INPUT CARD>! $CONTRL   CITYP=GUGA  $END                                                    
 INPUT CARD> $CONTRL   MAXIT=90  MULT=1  $END                                               
 INPUT CARD> $CONTRL   VBTYP=NONE  $END                                                     
 INPUT CARD> $MCSCF  MAXIT=100 $END                                                         
 INPUT CARD> $MCSCF CISTEP=GUGA $END                                                        
 INPUT CARD> $DRT    GROUP=CS  FORS=.TRUE. NMCC=13 NDOC=2 NVAL=2 $END                       
 INPUT CARD> $GUGDIA NSTATE=2 $END                                                          
 INPUT CARD> $GUGDM2 WSTATE(1)=1.0,1.0 $END                                                 
 INPUT CARD> $SYSTEM TIMLIM=525600 MEMORY=1000000 $END                                      
 INPUT CARD>                                                                                
 INPUT CARD>! $CIDET                                                                        
 INPUT CARD>!  NCORE=13 NACT=4 NELS=4 ISTSYM=1 NSTATE=1                                     
 INPUT CARD>!  WSTATE(1)=1.0,0.0,0.0                                                        
 INPUT CARD>! $END                                                                          
 INPUT CARD> $BASIS GBASIS=N31 NGAUSS=6 NDFUNC=1 $END                                       
 INPUT CARD> $GUESS GUESS=MOREAD NORB=17 $END                                               
 INPUT CARD> $GUESS NORDER=1 IORDER(13)=14,13 $END                                          
 INPUT CARD> $SCF DIRSCF=.TRUE. $END                                                        
 INPUT CARD>! $DET                                                                          
 INPUT CARD>! PRTTOL=0.  NCORE=13  NACT=4 NELS=4 !   ISTSYM=1   STSYM=AP                    
 INPUT CARD>! PRTTOL=0.  NCORE=7  NACT=2 NELS=2 ISTSYM=6                                    
 INPUT CARD>! $END                                                                          
 INPUT CARD>!                                                                               
 INPUT CARD> $DATA                                                                          
 INPUT CARD>                                                                                
 INPUT CARD>  Cs                                                                            
 INPUT CARD>                                                                                
 INPUT CARD>C 6.      1.209467     1.295575   0.000000                                      
 INPUT CARD>C 6.     0.000000     0.718809    0.00000                                       
 INPUT CARD>C 6.      -0.148676    -0.750912   0.000000                                     
 INPUT CARD>O 8.      -1.214692    -1.329532   0.000000                                     
 INPUT CARD>H 1.0     1.336176     2.380594   0.000000                                      
 INPUT CARD>H 1.0     2.121140     0.688472   0.000000                                      
 INPUT CARD>H 1.0     -0.927519     1.299734   0.000000                                     
 INPUT CARD>H 1.0     0.822993    -1.313379   0.000000                                      
 INPUT CARD> $END                                                                           
 INPUT CARD> $VEC                                                                           
 INPUT CARD> 1  1 5.51520407E-06 3.63588596E-05-1.98848506E-05-1.47483115E-05-0.00000000E+00
 INPUT CARD> 1  2-9.00462281E-05 3.65144427E-05 1.28151886E-04-0.00000000E+00 2.35058543E-05
 INPUT CARD> 1  3-1.49293941E-05 1.41217944E-05-3.17571406E-06-0.00000000E+00-0.00000000E+00
 INPUT CARD> 1  4-7.95955386E-07 1.38682935E-06 1.95210423E-05 6.93822084E-06-0.00000000E+00
 INPUT CARD> 1  5-5.52142306E-05-6.56867159E-06 6.20827048E-05-0.00000000E+00-1.97730173E-05
 INPUT CARD> 1  6 5.40034640E-06-1.72746914E-05-7.04693471E-05-0.00000000E+00-0.00000000E+00
 INPUT CARD> 1  7-4.01320322E-06 4.48330815E-04 8.37785754E-05 4.44305724E-05-0.00000000E+00
 INPUT CARD> 1  8-3.39854923E-04 5.71848947E-04 3.29367340E-04-0.00000000E+00-6.31367996E-04
 INPUT CARD> 1  9-2.29460051E-04-2.64079711E-05-3.72107883E-04-0.00000000E+00-0.00000000E+00
    1000000 WORDS OF MEMORY AVAILABLE

     BASIS OPTIONS
     -------------
     GBASIS=N31          IGAUSS=       6      POLAR=POPN31  
     NDFUNC=       1     NFFUNC=       0     DIFFSP=       F
     NPFUNC=       0      DIFFS=       F     BASNAM=        


     RUN TITLE
     ---------
                                                                                 

 THE POINT GROUP OF THE MOLECULE IS CS      
 THE ORDER OF THE PRINCIPAL AXIS IS     0

 ATOM      ATOMIC                      COORDINATES (BOHR)
           CHARGE         X                   Y                   Z
 C           6.0     2.2855612212        2.4482817465        0.0000000000
 C           6.0     0.0000000000        1.3583520475        0.0000000000
 C           6.0    -0.2809569010       -1.4190179209        0.0000000000
 O           8.0    -2.2954350395       -2.5124511719        0.0000000000
 H           1.0     2.5250065114        4.4986703480        0.0000000000
 H           1.0     4.0083733816        1.3010234302        0.0000000000
 H           1.0    -1.7527567584        2.4561411169        0.0000000000
 H           1.0     1.5552312598       -2.4819264280        0.0000000000

          INTERNUCLEAR DISTANCES (ANGS.)
          ------------------------------

                1 C          2 C          3 C          4 O          5 H     

   1 C       0.0000000    1.3399513 *  2.4561477 *  3.5731966    1.0923925 *
   2 C       1.3399513 *  0.0000000    1.4772218 *  2.3814234 *  2.1323451 *
   3 C       2.4561477 *  1.4772218 *  0.0000000    1.2129267 *  3.4657056  
   4 O       3.5731966    2.3814234 *  1.2129267 *  0.0000000    4.5024396  
   5 H       1.0923925 *  2.1323451 *  3.4657056    4.5024396    0.0000000  
   6 H       1.0953181 *  2.1213569 *  2.6877297 *  3.8987325    1.8653271 *
   7 H       2.1369900 *  1.0944247 *  2.1935691 *  2.6449023 *  2.5085002 *
   8 H       2.6374236 *  2.1925112 *  1.1227243 *  2.0377490 *  3.7294495  

                6 H          7 H          8 H     

   1 C       1.0953181 *  2.1369900 *  2.6374236 *
   2 C       2.1213569 *  1.0944247 *  2.1925112 *
   3 C       2.6877297 *  2.1935691 *  1.1227243 *
   4 O       3.8987325    2.6449023 *  2.0377490 *
   5 H       1.8653271 *  2.5085002 *  3.7294495  
   6 H       0.0000000    3.1093348    2.3859156 *
   7 H       3.1093348    0.0000000    3.1452586  
   8 H       2.3859156 *  3.1452586    0.0000000  

  * ... LESS THAN  3.000


     ATOMIC BASIS SET
     ----------------
 THE CONTRACTED PRIMITIVE FUNCTIONS HAVE BEEN UNNORMALIZED
 THE CONTRACTED BASIS FUNCTIONS ARE NOW NORMALIZED TO UNITY

  SHELL TYPE  PRIMITIVE        EXPONENT          CONTRACTION COEFFICIENT(S)

 C         

      1   S       1          3047.5248800    0.001834737132
      1   S       2           457.3695180    0.014037322813
      1   S       3           103.9486850    0.068842622264
      1   S       4            29.2101553    0.232184443216
      1   S       5             9.2866630    0.467941348435
      1   S       6             3.1639270    0.362311985337

      2   L       7             7.8682723   -0.119332419775    0.068999066591
      2   L       8             1.8812885   -0.160854151696    0.316423960957
      2   L       9             0.5442493    1.143456437840    0.744308290898

      3   L      10             0.1687145    1.000000000000    1.000000000000

      4   D      11             0.8000000    1.000000000000

 C         

      5   S      12          3047.5248800    0.001834737132
      5   S      13           457.3695180    0.014037322813
      5   S      14           103.9486850    0.068842622264
      5   S      15            29.2101553    0.232184443216
      5   S      16             9.2866630    0.467941348435
      5   S      17             3.1639270    0.362311985337

      6   L      18             7.8682723   -0.119332419775    0.068999066591
      6   L      19             1.8812885   -0.160854151696    0.316423960957
      6   L      20             0.5442493    1.143456437840    0.744308290898

      7   L      21             0.1687145    1.000000000000    1.000000000000

      8   D      22             0.8000000    1.000000000000

 C         

      9   S      23          3047.5248800    0.001834737132
      9   S      24           457.3695180    0.014037322813
      9   S      25           103.9486850    0.068842622264
      9   S      26            29.2101553    0.232184443216
      9   S      27             9.2866630    0.467941348435
      9   S      28             3.1639270    0.362311985337

     10   L      29             7.8682723   -0.119332419775    0.068999066591
     10   L      30             1.8812885   -0.160854151696    0.316423960957
     10   L      31             0.5442493    1.143456437840    0.744308290898

     11   L      32             0.1687145    1.000000000000    1.000000000000

     12   D      33             0.8000000    1.000000000000

 O         

     13   S      34          5484.6716600    0.001831074430
     13   S      35           825.2349460    0.013950172200
     13   S      36           188.0469580    0.068445078098
     13   S      37            52.9645000    0.232714335992
     13   S      38            16.8975704    0.470192897984
     13   S      39             5.7996353    0.358520852987

     14   L      40            15.5396162   -0.110777549525    0.070874268231
     14   L      41             3.5999336   -0.148026262701    0.339752839147
     14   L      42             1.0137618    1.130767015354    0.727158577316

     15   L      43             0.2700058    1.000000000000    1.000000000000

     16   D      44             0.8000000    1.000000000000

 H         

     17   S      45            18.7311370    0.033494604338
     17   S      46             2.8253944    0.234726953484
     17   S      47             0.6401217    0.813757326146

     18   S      48             0.1612778    1.000000000000

 H         

     19   S      49            18.7311370    0.033494604338
     19   S      50             2.8253944    0.234726953484
     19   S      51             0.6401217    0.813757326146

     20   S      52             0.1612778    1.000000000000

 H         

     21   S      53            18.7311370    0.033494604338
     21   S      54             2.8253944    0.234726953484
     21   S      55             0.6401217    0.813757326146

     22   S      56             0.1612778    1.000000000000

 H         

     23   S      57            18.7311370    0.033494604338
     23   S      58             2.8253944    0.234726953484
     23   S      59             0.6401217    0.813757326146

     24   S      60             0.1612778    1.000000000000

 TOTAL NUMBER OF BASIS SET SHELLS             =   24
 NUMBER OF CARTESIAN GAUSSIAN BASIS FUNCTIONS =   68
 NUMBER OF ELECTRONS                          =   30
 CHARGE OF MOLECULE                           =    0
 SPIN MULTIPLICITY                            =    1
 NUMBER OF OCCUPIED ORBITALS (ALPHA)          =   15
 NUMBER OF OCCUPIED ORBITALS (BETA )          =   15
 TOTAL NUMBER OF ATOMS                        =    8
 THE NUCLEAR REPULSION ENERGY IS      102.6894631254

     $CONTRL OPTIONS
     ---------------
 SCFTYP=MCSCF        RUNTYP=ENERGY       EXETYP=RUN     
 MPLEVL=       0     CITYP =NONE         CCTYP =NONE         VBTYP =NONE    
 DFTTYP=NONE         TDDFT =NONE    
 MULT  =       1     ICHARG=       0     NZVAR =       0     COORD =UNIQUE  
 PP    =NONE         RELWFN=NONE         LOCAL =NONE         NUMGRD=       F
 ISPHER=      -1     NOSYM =       0     MAXIT =      90     UNITS =ANGS    
 PLTORB=       F     MOLPLT=       F     AIMPAC=       F     FRIEND=        
 NPRINT=       7     IREST =       0     GEOM  =INPUT   
 NORMF =       0     NORMP =       0     ITOL  =      20     ICUT  =       9
 INTTYP=BEST         GRDTYP=BEST         QMTTOL= 1.0E-06

     $SYSTEM OPTIONS
     ---------------
  REPLICATED MEMORY=     1000000 WORDS (ON EVERY NODE).
 DISTRIBUTED MEMDDI=           0 MILLION WORDS IN AGGREGATE,
 MEMDDI DISTRIBUTED OVER   1 PROCESSORS IS           0 WORDS/PROCESSOR.
 TOTAL MEMORY REQUESTED ON EACH PROCESSOR=     1000000 WORDS.
 TIMLIM=      525600.00 MINUTES, OR     365.0 DAYS.
 PARALL= F  BALTYP=  DLB     KDIAG=    0  COREFL= F
 MXSEQ2=     300 MXSEQ3=     150  mem10=         0  mem22=         0

 Using Gaussians for PCM contribution to MEP, params: 0.10000E+01 0.10000E-07

          ----------------
          PROPERTIES INPUT
          ----------------

     MOMENTS            FIELD           POTENTIAL          DENSITY
 IEMOM =       1   IEFLD =       0   IEPOT =       0   IEDEN =       0
 WHERE =COMASS     WHERE =NUCLEI     WHERE =NUCLEI     WHERE =NUCLEI  
 OUTPUT=BOTH       OUTPUT=BOTH       OUTPUT=BOTH       OUTPUT=BOTH    
 IEMINT=       0   IEFINT=       0                     IEDINT=       0
                                                       MORB  =       0

     -------------------------------
     INTEGRAL TRANSFORMATION OPTIONS
     -------------------------------
     NWORD  =            0
     CUTOFF = 1.0E-09     MPTRAN =       0
     DIRTRF =       F     AOINTS =DUP     

          ----------------------
          MCSCF INPUT PARAMETERS
          ----------------------
 CONVERGER SELECTION: FOCAS = F  SOSCF = T  FULLNR = F  QUD = F  JACOBI = F
 SECULAR EQUATION METHOD CISTEP = GUGA    
 --- GENERAL INPUT OPTIONS:
 MAXIT =     100  MICIT =       5  ACURCY= 1.000E-05
 DAMP  =   0.000  CANONC=       T  ENGTOL= 1.000E-10
 EKT   =       F  NPUNCH=       2  NWORD =         0
 REGENERATE CI AFTER CONVERGENCE = NONE    
 DIABATIZATION AFTER CONVERGENCE =        F
 --- INPUT FOR SOSCF CONVERGER:
 FORS  =       T  NOFO  =       1

          ----------------------
          INTEGRAL INPUT OPTIONS
          ----------------------
 NOPK  =       1 NORDER=       0 SCHWRZ=       T

     ------------------------------------------
     THE POINT GROUP IS CS , NAXIS= 0, ORDER= 2
     ------------------------------------------

     DIMENSIONS OF THE SYMMETRY SUBSPACES ARE
 A'  =   52     A'' =   16

 ..... DONE SETTING UP THE RUN .....
 STEP CPU TIME =     0.05 TOTAL CPU TIME =          0.1 (      0.0 MIN)
 TOTAL WALL CLOCK TIME=          0.1 SECONDS, CPU UTILIZATION IS    96.28%

          ********************
          1 ELECTRON INTEGRALS
          ********************
 TIME TO DO   DIPOLE INTEGRALS=      0.00
 ...... END OF ONE-ELECTRON INTEGRALS ......
 STEP CPU TIME =     0.00 TOTAL CPU TIME =          0.1 (      0.0 MIN)
 TOTAL WALL CLOCK TIME=          0.1 SECONDS, CPU UTILIZATION IS    96.51%

          -------------
          GUESS OPTIONS
          -------------
          GUESS =MOREAD            NORB  =      17          NORDER=       1
          MIX   =       F          PRTMO =       F          PUNMO =       F
          TOLZ  = 1.0E-08          TOLE  = 1.0E-05
          SYMDEN=       F          PURIFY=       F

 INITIAL GUESS ORBITALS GENERATED BY MOREAD   ROUTINE.

 SYMMETRIES FOR INITIAL GUESS ORBITALS FOLLOW.   BOTH SET(S).
    17 ORBITALS ARE OCCUPIED (    4 CORE ORBITALS).
     1=A'       2=A'       3=A'       4=A'       5=A'       6=A'       7=A'  
     8=A'       9=A'      10=A'      11=A'      12=A'      13=A'      14=A'' 
    15=A''     16=A''     17=A''     18=A'      19=A'      20=A'      21=A'  
    22=A'      23=A'      24=A'      25=A'      26=A'      27=A'      28=A'  
    29=A'      30=A'      31=A'      32=A'      33=A'      34=A'      35=A'  
    36=A'      37=A'      38=A'      39=A'      40=A'      41=A'      42=A'  
    43=A'      44=A'      45=A'      46=A'      47=A'      48=A'      49=A'  
    50=A'      51=A'      52=A'      53=A'      54=A'      55=A'      56=A'  
    57=A''     58=A''     59=A''     60=A''     61=A''     62=A''     63=A'' 
    64=A''     65=A''     66=A''     67=A''     68=A'' 
 ...... END OF INITIAL ORBITAL SELECTION ......
 STEP CPU TIME =     0.01 TOTAL CPU TIME =          0.1 (      0.0 MIN)
 TOTAL WALL CLOCK TIME=          0.1 SECONDS, CPU UTILIZATION IS    96.91%

                    ----------------------
                    AO INTEGRAL TECHNOLOGY
                    ----------------------
     S,P,L SHELL ROTATED AXIS INTEGRALS, REPROGRAMMED BY
        KAZUYA ISHIMURA (IMS) AND JOSE SIERRA (SYNSTAR).
     S,P,D,L SHELL ROTATED AXIS INTEGRALS PROGRAMMED BY
        KAZUYA ISHIMURA (INSTITUTE FOR MOLECULAR SCIENCE).
     S,P,D,F,G SHELL TO TOTAL QUARTET ANGULAR MOMENTUM SUM 5,
        ERIC PROGRAM BY GRAHAM FLETCHER (ELORET AND NASA ADVANCED
        SUPERCOMPUTING DIVISION, AMES RESEARCH CENTER).
     S,P,D,F,G,L SHELL GENERAL RYS QUADRATURE PROGRAMMED BY
        MICHEL DUPUIS (PACIFIC NORTHWEST NATIONAL LABORATORY).

          --------------------
          2 ELECTRON INTEGRALS
          --------------------

 THE -PK- OPTION IS OFF, THE INTEGRALS ARE NOT IN SUPERMATRIX FORM.
 STORING   15000 INTEGRALS/RECORD ON DISK, USING 12 BYTES/INTEGRAL.
 TWO ELECTRON INTEGRAL EVALUATION REQUIRES   90696 WORDS OF MEMORY.
 SCHWARZ INEQUALITY OVERHEAD:      2343 INTEGRALS, T=        0.00
 II,JST,KST,LST =  1  1  1  1 NREC =         1 INTLOC =    1
 II,JST,KST,LST =  2  1  1  1 NREC =         1 INTLOC =    2
 II,JST,KST,LST =  3  1  1  1 NREC =         1 INTLOC =   34
 II,JST,KST,LST =  4  1  1  1 NREC =         1 INTLOC =  214
 II,JST,KST,LST =  5  1  1  1 NREC =         1 INTLOC = 1189
 II,JST,KST,LST =  6  1  1  1 NREC =         1 INTLOC = 2364
 II,JST,KST,LST =  7  1  1  1 NREC =         1 INTLOC = 9259
 II,JST,KST,LST =  8  1  1  1 NREC =         2 INTLOC = 6298
 II,JST,KST,LST =  9  1  1  1 NREC =         4 INTLOC = 7025
 II,JST,KST,LST = 10  1  1  1 NREC =         4 INTLOC =14815
 II,JST,KST,LST = 11  1  1  1 NREC =         7 INTLOC = 9788
 II,JST,KST,LST = 12  1  1  1 NREC =        11 INTLOC = 5673
 II,JST,KST,LST = 13  1  1  1 NREC =        19 INTLOC = 3094
 II,JST,KST,LST = 14  1  1  1 NREC =        20 INTLOC = 6109
 II,JST,KST,LST = 15  1  1  1 NREC =        27 INTLOC = 1737
 II,JST,KST,LST = 16  1  1  1 NREC =        36 INTLOC =14144
 II,JST,KST,LST = 17  1  1  1 NREC =        54 INTLOC = 9971
 II,JST,KST,LST = 18  1  1  1 NREC =        57 INTLOC =10186
 II,JST,KST,LST = 19  1  1  1 NREC =        61 INTLOC =12813
 II,JST,KST,LST = 20  1  1  1 NREC =        65 INTLOC = 8679
 II,JST,KST,LST = 21  1  1  1 NREC =        70 INTLOC = 4184
 II,JST,KST,LST = 22  1  1  1 NREC =        75 INTLOC = 1706
 II,JST,KST,LST = 23  1  1  1 NREC =        80 INTLOC = 5680
 II,JST,KST,LST = 24  1  1  1 NREC =        85 INTLOC =11175
 SCHWARZ INEQUALITY TEST SKIPPED        4668 INTEGRAL BLOCKS.
 TOTAL NUMBER OF NONZERO TWO-ELECTRON INTEGRALS =             1358670
         91 INTEGRAL RECORDS WERE STORED ON DISK FILE  8.
  ...... END OF TWO-ELECTRON INTEGRALS .....
 STEP CPU TIME =     0.31 TOTAL CPU TIME =          0.4 (      0.0 MIN)
 TOTAL WALL CLOCK TIME=          0.4 SECONDS, CPU UTILIZATION IS    99.05%

          -----------------
          MCSCF CALCULATION
          -----------------

 ----- NUCLEAR ENERGY ----- =       102.6894631254

          -----------------------     ----------------------------
          GUGA DISTINCT ROW TABLE     WRITTEN BY B.R.BROOKS,P.SAXE
          -----------------------     ----------------------------

      GROUP=CS           NPRT=       0
       FORS=       T   INTACT=       F
       FOCI=       F   MXNINT=   50000
       SOCI=       F   MXNEME=   10000
     IEXCIT=       0

      -CORE-    -INTERNAL-  -EXTERNAL-
     NFZC=   0   NDOC=   2   NEXT=   0
     NMCC=  13   NAOS=   0   NFZV=   0
                 NBOS=   0
                 NALP=   0
                 NVAL=   2

 THE MAXIMUM ELECTRON EXCITATION WILL BE   4

 SYMMETRIES FOR THE  13 CORE,   4 ACTIVE,   0 EXTERNAL MO-S ARE
     CORE= A'    A'    A'    A'    A'    A'    A'    A'    A'    A'  
           A'    A'    A'  
   ACTIVE= A''   A''   A''   A'' 
           DOC   DOC   VAL   VAL 

 MOLECULAR CHARGE          =    0
 NUMBER OF ALPHA ELECTRONS =   15
 NUMBER OF  BETA ELECTRONS =   15

 THE ELECTRONIC STATE IS  1-A'  

 THE DISTINCT ROW TABLE HAS        14 ROWS.
  THE WAVEFUNCTION CONTAINS        20 WALKS (CSF-S).

 TOTAL NUMBER OF INTEGRALS =         73
 NUMBER OF INTEGRALS/GROUP =         73
 NUMBER OF INTEGRAL GROUPS =          1
 MAXIMUM RECORD SIZES ARE     500 FOR UNIT 11      22 FOR UNIT 12
                            30001 FOR UNIT 15   30001 FOR UNIT 16
 ...... END OF -DRT- GENERATION ...... 
 STEP CPU TIME =     0.01 TOTAL CPU TIME =          0.4 (      0.0 MIN)
 TOTAL WALL CLOCK TIME=          0.4 SECONDS, CPU UTILIZATION IS    99.09%
 OPENING FILE DAFL30 WITH      81 LOGICAL RECORDS OF    4624 WORDS
 WITH A MAXIMUM OF         243 PHYSICAL RECORDS OF    2048 WORDS

          ------------------------------
          CASSCF INTEGRAL TRANSFORMATION
          ------------------------------
 AO INTEGRALS WILL BE READ IN FROM DISK...

 NUMBER OF CORE MOLECULAR ORBITALS     =    13
 NUMBER OF OCCUPIED MOLECULAR ORBITALS =    17
 TOTAL NUMBER OF MOLECULAR ORBITALS    =    68
 TOTAL NUMBER OF ATOMIC ORBITALS       =    68

 ----- CHOOSING THREE STEPS TRANSFORMATION -----
 NUMBER OF WORDS USED      =     733303
 NUMBER OF WORDS AVAILABLE =     999999
 NUMBER OF PASSES          =          1

 ----- NUCLEAR REPULSION ENERGY =    102.68946313
 ----- FROZEN CORE ENERGY       =   -289.72359875

 ... SYMMETRY ...           CPU =    0.00
 ... (PQ|RS) -> (PQ|KL) ... CPU =    0.10
 ... (PQ|KL) -> (IJ|KL) ... CPU =    0.00

 NUMBER OF (PQ|KL) INTEGRALS WRITTEN      14757
 NUMBER OF (IJ|KL) INTEGRALS WRITTEN         55
 ..... END OF CAS INTEGRAL TRANSFORMATION .....
 STEP CPU TIME =     0.10 TOTAL CPU TIME =          0.5 (      0.0 MIN)
 TOTAL WALL CLOCK TIME=          0.5 SECONDS, CPU UTILIZATION IS    99.28%

          ------------------------
          GUGA-CI INTEGRAL SORTING
          ------------------------

     80057 WORDS NEEDED TO SORT             73 GUGA INTEGRALS IN MEMORY
    999999 WORDS ARE AVAILABLE
 CHOOSING IN-MEMORY SORTING...
 IN CORE ALGORITHM SORTED             10 NON-ZERO 1E- INTEGRALS
 IN CORE ALGORITHM SORTED             55 NON-ZERO 2E- INTEGRALS
 ...... END OF INTEGRAL SORTING ...... 
 STEP CPU TIME =     0.00 TOTAL CPU TIME =          0.5 (      0.0 MIN)
 TOTAL WALL CLOCK TIME=          0.5 SECONDS, CPU UTILIZATION IS    99.28%

 -------------------------     ---------------------------------------
 ENERGY MATRIX CALCULATION     WRITTEN BY B.R.BROOKS,W.D.LAIDIG,P.SAXE
 -------------------------     ---------------------------------------

 COMPUTING THE HAMILTONIAN FOR THE        20 CSF-S...

         318 IS THE TOTAL NUMBER OF GENERATED LOOPS
         318 WERE CREATED BY THE LOOP-DRIVEN ALGORITHM
           0 WERE CREATED IMPLICITLY

         318 IS THE TOTAL NUMBER OF PROCESSED LOOPS
          64     DIAGONAL LOOPS ARE STORED ON WORK15 IN     1 BUFFERS OF  10000 ELEMENTS.
         254 OFF DIAGONAL LOOPS ARE STORED ON WORK16 IN     1 BUFFERS OF  10000 ELEMENTS.
 ...... END OF ENERGY MATRIX CALCULATION ...... 
 STEP CPU TIME =     0.01 TOTAL CPU TIME =          0.5 (      0.0 MIN)
 TOTAL WALL CLOCK TIME=          0.5 SECONDS, CPU UTILIZATION IS    99.29%

          -----------------------------------------
          DAVIDSON METHOD CI-MATRIX DIAGONALIZATION
                   WRITTEN BY STEVE ELBERT
          -----------------------------------------
 NUMBER OF STATES REQUESTED =     2
 MAX. NUMB. OF EXPAN. VEC   =    30
 MAX. NUMB. IMPROVED STATES =     2
 MAX. NUMB. OF ITERATIONS   =    50
 CONVERGENCE CRITERION      =    1.0E-05

 CHOOSING TO SOLVE SECULAR EQUATION IN MEMORY
 NUMBER OF WORDS AVAILABLE =     999999
 NUMBER OF WORDS USED      =      31460
 ENERGY MATRIX BUFFER SIZE =      10000
 SOLUTION FOUND WITH DIRECT METHOD

 STATE #    1  ENERGY =    -190.801123793

      CSF      COEF    OCCUPANCY (IGNORING CORE)
      ---      ----    --------- --------- -----
        1    0.966817  2200
        4   -0.059282  2002
        6   -0.063052  0202
       10    0.081364  2011
       11   -0.098541  1111
       12   -0.083303  0211
       15   -0.152327  2020
       17   -0.081647  0220

 STATE #    2  ENERGY =    -190.493745175

      CSF      COEF    OCCUPANCY (IGNORING CORE)
      ---      ----    --------- --------- -----
        2    0.347729  2101
        3    0.113643  1201
        4   -0.130054  2002
        5   -0.154207  1102
        7    0.491251  2110
        8   -0.440994  1210
        9    0.229693  1111
       10    0.141451  2011
       12   -0.060242  0211
       15    0.372576  2020
       16    0.364351  1120
       17   -0.190490  0220
 ...... END OF CI-MATRIX DIAGONALIZATION ......
 STEP CPU TIME =     0.00 TOTAL CPU TIME =          0.5 (      0.0 MIN)
 TOTAL WALL CLOCK TIME=          0.5 SECONDS, CPU UTILIZATION IS    99.29%

          -------------------------------------
          2-PARTICLE DENSITY MATRIX CALCULATION
          -------------------------------------
 2 BODY DENSITY IS AN AVERAGE OF  2 STATE(S).
   STATE    WEIGHT          ENERGY
     1    0.500000     -190.8011237935
     2    0.500000     -190.4937451753
          318 -DM2- LOOPS WERE GENERATED
          318 WERE CREATED BY THE LOOP-DRIVEN ALGORITHM
            0 WERE CREATED IMPLICITLY
          1 RECORDS OF LENGTH 50000 WRITTEN TO FILE 15
 ...... END OF 2-PARTICLE DENSITY MATRIX CALCULATION ......
 STEP CPU TIME =     0.00 TOTAL CPU TIME =          0.5 (      0.0 MIN)
 TOTAL WALL CLOCK TIME=          0.5 SECONDS, CPU UTILIZATION IS    99.26%

          ----------------------------------
          2-PARTICLE DENSITY MATRIX LABELING
          ----------------------------------
      96577 WORDS NEEDED TO LABEL DM2 MATRIX
          1 RECORDS OF LENGTH 50000  READ FROM FILE 15
          1 RECORDS OF LENGTH 15000 WRITTEN TO FILE 16
 ...... END OF 2-PARTICLE DENSITY MATRIX LABELING ......
 STEP CPU TIME =     0.00 TOTAL CPU TIME =          0.5 (      0.0 MIN)
 TOTAL WALL CLOCK TIME=          0.5 SECONDS, CPU UTILIZATION IS    99.21%

          --------------
          -DM2- ORDERING
          --------------
      30066 WORDS NEEDED (    999999 AVAILABLE) TO ORDER DM2 IN MEMORY
 CHOOSING IN MEMORY ORDERING...
                               1 RECORDS OF LENGTH 15000  READ FROM FILE 16
         55 DM2 VALUES IN      1 RECORDS OF LENGTH 15000 WRITTEN TO FILE 15
 ...... END OF -DM2- ORDERING ...... 
 STEP CPU TIME =     0.00 TOTAL CPU TIME =          0.5 (      0.0 MIN)
 TOTAL WALL CLOCK TIME=          0.5 SECONDS, CPU UTILIZATION IS    99.19%

          --------------------------------------
          APPROXIMATE SECOND-ORDER MCSCF PROGRAM
          --------------------------------------
          PROGRAM WRITTEN BY G.CHABAN, A.MARQUEZ, AND M.DUPUIS

  NUMBER OF WORDS NEEDED     =      82373
  NUMBER AVAILABLE           =     999999

 ----- GAMMA(IJKL)*(PQ|KL) PRODUCTS ----- CPU TIME =      0.001
 ----- ORBITAL SYMMETRY             ----- CPU TIME =      0.001
 ----- FOCK OPERATORS CONSTRUCTION  ----- CPU TIME =      0.029
 ----- WARNING : CORE-ACTIVE GAP    =    0.06231
     MICIT =   1 ASYMM =    0.038762 ROTMAX =    0.026360
 ----- EFFECTIVE FOCK + ROTATE ORBS ----- CPU TIME =      0.005
     MICIT =   2 ASYMM =    0.029662 ROTMAX =    0.006238
     MICIT =   3 ASYMM =    0.027495 ROTMAX =    0.009774
     MICIT =   4 ASYMM =    0.024356 ROTMAX =    0.012110
     MICIT =   5 ASYMM =    0.021001 ROTMAX =    0.013883
 ..... DONE WITH CASSCF ORBITAL UPDATE .....
 STEP CPU TIME =     0.05 TOTAL CPU TIME =          0.6 (      0.0 MIN)
 TOTAL WALL CLOCK TIME=          0.6 SECONDS, CPU UTILIZATION IS    99.26%

 ITER     TOTAL ENERGY      DEL(E)  LAGRANGIAN ASYMMETRY   SQCDF  MICIT   DAMP
   1     -190.647434484 -0.647434484  0.038762   58   16 2.636E-02  5   0.0000
       ----------START APPROXIMATE SECOND ORDER MCSCF----------
   2     -190.663087626 -0.015653141  0.024150   58   16 6.748E-03  1   0.0000
   3     -190.667861728 -0.004774102  0.013081   58   16 7.793E-03  1   0.0000
   4     -190.669851662 -0.001989934  0.006434   63   16 2.213E-04  1   0.0000
   5     -190.670107767 -0.000256105  0.004255   59   15 1.490E-04  1   0.0000
   6     -190.670195900 -0.000088134  0.001701   62   14 5.971E-06  1   0.0000
   7     -190.670204779 -0.000008879  0.000852   59   14 6.368E-07  1   0.0000
   8     -190.670206475 -0.000001695  0.000249   23    9 2.718E-07  1   0.0000
   9     -190.670207007 -0.000000533  0.000146   24    9 8.476E-08  1   0.0000
  10     -190.670207160 -0.000000152  0.000074   59   14 1.822E-08  1   0.0000
  11     -190.670207200 -0.000000040  0.000039   62   15 7.374E-09  1   0.0000
  12     -190.670207211 -0.000000011  0.000023   58   15 2.352E-09  1   0.0000
  13     -190.670207214 -0.000000003  0.000011   59   14 5.066E-10  1   0.0000
  14     -190.670207215 -0.000000001  0.000006   62   14 1.614E-10  1   0.0000

          --------------------
          LAGRANGIAN CONVERGED
          --------------------

 FINAL MCSCF ENERGY IS     -190.6702072147 AFTER  14 ITERATIONS

 -MCCI- BASED ON OPTIMIZED ORBITALS
 ----------------------------------

 PLEASE NOTE: IF THE ACTIVE ORBITALS ARE CANONICALIZED BELOW,
 THE FOLLOWING CI EXPANSION COEFFICIENTS AND THE DENSITY DO NOT
 CORRESPOND TO THE PRINTED ORBITALS.  THE PRINTED EXPANSIONS MATCH
 THE ORBITALS USED DURING THE LAST ITERATION.  IF YOU WISH TO SEE
 CI EXPANSIONS BASED ON THE CANONICAL (OR NATURAL) ORBITALS, YOU
 MUST RUN A CI CALCULATION WITH THAT ORBITAL CHOICE READ IN $VEC.

 STATE #    1  ENERGY =    -190.813931721

      CSF      COEF    OCCUPANCY (IGNORING CORE)
      ---      ----    --------- --------- -----
        1    0.945977  2200
        2    0.024616  2101
        3    0.059780  1201
        4   -0.069010  2002
        5   -0.003090  1102
        6   -0.080874  0202
        7    0.069255  2110
        8    0.077783  1210
        9   -0.036237  1111
       10    0.095741  2011
       11   -0.121356  1111
       12   -0.106099  0211
       13   -0.004024  1012
       14    0.014523  0112
       15   -0.172649  2020
       16   -0.032927  1120
       17   -0.095031  0220
       18    0.019477  1021
       19   -0.014417  0121
       20    0.039864  0022

 STATE #    2  ENERGY =    -190.526482709

      CSF      COEF    OCCUPANCY (IGNORING CORE)
      ---      ----    --------- --------- -----
        1    0.058248  2200
        2    0.331209  2101
        3    0.130532  1201
        4   -0.165751  2002
        5   -0.190651  1102
        6    0.061017  0202
        7    0.258907  2110
        8   -0.449213  1210
        9    0.283822  1111
       10    0.129947  2011
       11    0.041794  1111
       12   -0.068946  0211
       13    0.038041  1012
       14    0.011918  0112
       15    0.415028  2020
       16    0.456394  1120
       17   -0.215769  0220
       18    0.029231  1021
       19   -0.003765  0121
       20   -0.000164  0022

 DENSITY MATRIX OVER ACTIVE MO-S

             1           2           3           4

    1    1.6283587
    2    0.0545709   1.4719752
    3   -0.2054873   0.0291131   0.6810145
    4    0.0214905  -0.0783457   0.0553554   0.2186515

 FORMING THE "STANDARD FOCK OPERATOR" USING INTEGRALS FROM DISK...
    13 FILLED,    4 ACTIVE, AND   51 VIRTUAL ORBITALS  WILL BE CANONICALIZED

          ----------------------
          MCSCF NATURAL ORBITALS
          ----------------------

                      1          2          3          4          5
                  -20.6001   -11.2941   -11.2519   -11.2400    -1.4113
                     A'         A'         A'         A'         A'  
    1  C  1  S    0.000006  -0.000071   0.061757   0.993626  -0.002450
    2  C  1  S    0.000038  -0.000238   0.001472   0.027902   0.007028
    3  C  1  X   -0.000020   0.000012   0.000246  -0.000370  -0.003023
    4  C  1  Y   -0.000018   0.000136   0.000121  -0.000224  -0.003873
    5  C  1  Z   -0.000000   0.000000   0.000000  -0.000000   0.000000
    6  C  1  S   -0.000070  -0.000082   0.003880  -0.011269   0.005945
    7  C  1  X    0.000026  -0.000066  -0.001307   0.000715  -0.002981
    8  C  1  Y    0.000151  -0.000675  -0.001249   0.000491   0.011178
    9  C  1  Z   -0.000000   0.000000   0.000000  -0.000000   0.000000
   10  C  1 XX    0.000024   0.000081  -0.000564  -0.001792  -0.000048
   11  C  1 YY   -0.000015   0.000032  -0.000387  -0.002086   0.000151
   12  C  1 ZZ    0.000016  -0.000120  -0.000275  -0.002622   0.000282
   13  C  1 XY   -0.000004   0.000042  -0.000057   0.000240   0.000144
   14  C  1 XZ   -0.000000   0.000000   0.000000  -0.000000   0.000000
   15  C  1 YZ   -0.000000   0.000000   0.000000  -0.000000   0.000000
   16  C  2  S   -0.000002   0.008883   0.993632  -0.062389  -0.015631
   17  C  2  S   -0.000004   0.000341   0.027827  -0.001964   0.028391
   18  C  2  X    0.000021  -0.000085   0.000419  -0.000294  -0.006822
   19  C  2  Y    0.000007   0.000125   0.000050  -0.000111  -0.022925
   20  C  2  Z   -0.000000   0.000000   0.000000  -0.000000   0.000000
   21  C  2  S   -0.000013   0.002572  -0.013076   0.004508   0.021776
   22  C  2  X   -0.000051   0.000565  -0.001293   0.001111  -0.012896
   23  C  2  Y    0.000027  -0.001200   0.001042   0.000687  -0.012722
   24  C  2  Z   -0.000000   0.000000   0.000000  -0.000000   0.000000
   25  C  2 XX   -0.000021  -0.000251  -0.001624  -0.000284  -0.000071
   26  C  2 YY    0.000006  -0.000572  -0.001864  -0.000197   0.006939
   27  C  2 ZZ   -0.000018  -0.000150  -0.002468   0.000042  -0.001426
   28  C  2 XY   -0.000069  -0.000055   0.000251  -0.000080   0.002506
   29  C  2 XZ   -0.000000   0.000000   0.000000  -0.000000   0.000000
   30  C  2 YZ   -0.000000   0.000000   0.000000  -0.000000   0.000000
   31  C  3  S   -0.000006   0.995598  -0.009232   0.000596  -0.107541
   32  C  3  S    0.000458   0.027567  -0.000256  -0.000179   0.200861
   33  C  3  X    0.000092  -0.001326   0.000030  -0.000031  -0.152628
   34  C  3  Y    0.000052  -0.000610  -0.000074   0.000010  -0.078281
   35  C  3  Z   -0.000000   0.000000   0.000000  -0.000000   0.000000
   36  C  3  S   -0.000493  -0.006750   0.004282  -0.000359   0.041547
   37  C  3  X    0.000678  -0.002791   0.000339   0.000655   0.034574
   38  C  3  Y    0.000334  -0.001658   0.001721   0.000022   0.001120
   39  C  3  Z   -0.000000   0.000000   0.000000  -0.000000   0.000000
   40  C  3 XX   -0.000637  -0.001280  -0.000215   0.000011   0.022758
   41  C  3 YY   -0.000227  -0.001836  -0.000554   0.000126  -0.005266
   42  C  3 ZZ   -0.000046  -0.002599  -0.000112  -0.000045  -0.017041
   43  C  3 XY   -0.000379   0.000689  -0.000005   0.000054   0.022868
   44  C  3 XZ   -0.000000   0.000000   0.000000  -0.000000   0.000000
   45  C  3 YZ   -0.000000   0.000000   0.000000  -0.000000   0.000000
   46  O  4  S    0.994648  -0.000281   0.000019  -0.000036  -0.199344
   47  O  4  S    0.021062   0.000685  -0.000003  -0.000152   0.446944
   48  O  4  X    0.001380   0.000172   0.000019  -0.000014   0.122462
   49  O  4  Y    0.000755   0.000084  -0.000004  -0.000008   0.067826
   50  O  4  Z   -0.000000   0.000000   0.000000  -0.000000   0.000000
   51  O  4  S    0.004915  -0.003574  -0.000315   0.000925   0.406022
   52  O  4  X    0.000067  -0.002038  -0.000002   0.000151   0.046903
   53  O  4  Y    0.000032  -0.001011  -0.000213   0.000203   0.029374
   54  O  4  Z   -0.000000   0.000000   0.000000  -0.000000   0.000000
   55  O  4 XX   -0.003705  -0.000207   0.000099  -0.000126   0.015317
   56  O  4 YY   -0.003890   0.000159   0.000079  -0.000074   0.004415
   57  O  4 ZZ   -0.004352   0.000429  -0.000026  -0.000096  -0.002952
   58  O  4 XY    0.000161  -0.000266   0.000005   0.000021   0.010593
   59  O  4 XZ   -0.000000   0.000000   0.000000  -0.000000   0.000000
   60  O  4 YZ   -0.000000   0.000000   0.000000  -0.000000   0.000000
   61  H  5  S   -0.000005   0.000047  -0.000043  -0.000133  -0.000284
   62  H  5  S   -0.000076   0.000466   0.000235   0.001933  -0.006207
   63  H  6  S    0.000023  -0.000119  -0.000112  -0.000093   0.002299
   64  H  6  S    0.000011  -0.000092  -0.000200   0.002043   0.002959
   65  H  7  S   -0.000005  -0.000027  -0.000145  -0.000078   0.005613
   66  H  7  S   -0.000035   0.000312   0.001631  -0.000281  -0.001340
   67  H  8  S   -0.000035   0.000006  -0.000118  -0.000060   0.023315
   68  H  8  S   -0.000147   0.002181  -0.000202  -0.000226  -0.011682

                      6          7          8          9         10
                   -1.0689    -0.8691    -0.7717    -0.6761    -0.6575
                     A'         A'         A'         A'         A'  
    1  C  1  S   -0.139153   0.125080   0.056405  -0.020589  -0.015528
    2  C  1  S    0.264928  -0.238736  -0.106897   0.040376   0.026106
    3  C  1  X   -0.099307  -0.023367  -0.147420   0.081808   0.238930
    4  C  1  Y   -0.054911  -0.046392   0.008094   0.187232  -0.087568
    5  C  1  Z   -0.000000  -0.000000   0.000000  -0.000000  -0.000000
    6  C  1  S    0.203715  -0.241451  -0.135518   0.062520   0.058734
    7  C  1  X   -0.008403  -0.012802  -0.045089   0.028232   0.090598
    8  C  1  Y   -0.012196  -0.016417   0.002309   0.087725  -0.043738
    9  C  1  Z   -0.000000  -0.000000   0.000000  -0.000000  -0.000000
   10  C  1 XX    0.015336  -0.008146   0.000064  -0.005158   0.001251
   11  C  1 YY    0.007462  -0.013186  -0.012750   0.012460   0.007268
   12  C  1 ZZ   -0.012079   0.009785   0.004340  -0.000737  -0.001524
   13  C  1 XY    0.006644   0.004714   0.008345  -0.005118  -0.012464
   14  C  1 XZ   -0.000000  -0.000000   0.000000  -0.000000  -0.000000
   15  C  1 YZ   -0.000000  -0.000000   0.000000  -0.000000  -0.000000
   16  C  2  S   -0.160000  -0.048787  -0.091913   0.020532   0.025390
   17  C  2  S    0.311229   0.094845   0.178611  -0.043147  -0.050088
   18  C  2  X    0.092795  -0.125153  -0.131442  -0.157936  -0.022266
   19  C  2  Y    0.013755  -0.181469   0.096236   0.064683  -0.259785
   20  C  2  Z   -0.000000  -0.000000   0.000000  -0.000000  -0.000000
   21  C  2  S    0.209028   0.104949   0.214007  -0.025804  -0.056954
   22  C  2  X   -0.005357  -0.036136  -0.048483  -0.060745   0.006789
   23  C  2  Y    0.010585  -0.040113   0.033125   0.030399  -0.106137
   24  C  2  Z   -0.000000  -0.000000   0.000000  -0.000000  -0.000000
   25  C  2 XX    0.014771  -0.007852   0.011652   0.000844  -0.009989
   26  C  2 YY    0.006884   0.017539   0.001726   0.003768   0.006697
   27  C  2 ZZ   -0.013075  -0.003192  -0.006770   0.000948   0.001995
   28  C  2 XY    0.004145  -0.008424  -0.008233  -0.000301   0.002796
   29  C  2 XZ   -0.000000  -0.000000   0.000000  -0.000000  -0.000000
   30  C  2 YZ   -0.000000  -0.000000   0.000000  -0.000000  -0.000000
   31  C  3  S   -0.053585  -0.122684   0.083973  -0.022490  -0.002280
   32  C  3  S    0.105323   0.250823  -0.170881   0.058919   0.006772
   33  C  3  X    0.056147   0.068398  -0.108888  -0.287214  -0.070714
   34  C  3  Y    0.102733   0.102612   0.160614  -0.061370   0.271258
   35  C  3  Z   -0.000000  -0.000000   0.000000  -0.000000  -0.000000
   36  C  3  S    0.085217   0.218982  -0.168475  -0.024184  -0.006355
   37  C  3  X    0.022813   0.041923  -0.066289  -0.050543  -0.046408
   38  C  3  Y    0.021898   0.022267   0.034529   0.009993   0.090836
   39  C  3  Z   -0.000000  -0.000000   0.000000  -0.000000  -0.000000
   40  C  3 XX   -0.003764   0.001789  -0.011024   0.008499  -0.000760
   41  C  3 YY    0.014150   0.012438   0.001156  -0.013947  -0.004095
   42  C  3 ZZ   -0.003299  -0.007205   0.006706  -0.005997   0.001885
   43  C  3 XY   -0.002864  -0.009677   0.002368   0.012186  -0.004284
   44  C  3 XZ   -0.000000  -0.000000   0.000000  -0.000000  -0.000000
   45  C  3 YZ   -0.000000  -0.000000   0.000000  -0.000000  -0.000000
   46  O  4  S    0.035133   0.070061  -0.044207   0.059858  -0.010689
   47  O  4  S   -0.081904  -0.162364   0.103290  -0.137681   0.022863
   48  O  4  X    0.003061   0.105217  -0.209129   0.308763  -0.227463
   49  O  4  Y    0.019737   0.089707   0.042600   0.297338   0.249830
   50  O  4  Z   -0.000000  -0.000000   0.000000  -0.000000  -0.000000
   51  O  4  S   -0.082881  -0.219789   0.152148  -0.246743   0.049450
   52  O  4  X    0.003916   0.051337  -0.112303   0.174738  -0.134390
   53  O  4  Y    0.007904   0.046775   0.023498   0.173768   0.157893
   54  O  4  Z   -0.000000  -0.000000   0.000000  -0.000000  -0.000000
   55  O  4 XX   -0.002064   0.004429  -0.015129   0.014272  -0.019191
   56  O  4 YY   -0.000244   0.000765   0.008956   0.005509   0.015394
   57  O  4 ZZ   -0.000555  -0.002540   0.002929  -0.007524   0.000393
   58  O  4 XY    0.001403   0.007852  -0.001622   0.021551   0.008865
   59  O  4 XZ   -0.000000  -0.000000   0.000000  -0.000000  -0.000000
   60  O  4 YZ   -0.000000  -0.000000   0.000000  -0.000000  -0.000000
   61  H  5  S    0.065828  -0.119832  -0.055943   0.130686  -0.015278
   62  H  5  S    0.013623  -0.046525  -0.026754   0.077182  -0.006999
   63  H  6  S    0.069879  -0.094967  -0.116508   0.000995   0.155822
   64  H  6  S    0.010574  -0.034822  -0.063344   0.001159   0.102228
   65  H  7  S    0.076360   0.041932   0.162046   0.072941  -0.092383
   66  H  7  S    0.005888   0.009012   0.080429   0.041114  -0.047278
   67  H  8  S    0.032030   0.096626  -0.156191  -0.091628  -0.093671
   68  H  8  S    0.003599   0.027113  -0.080339  -0.069425  -0.058877

                     11         12         13         14         15
                   -0.5983    -0.5454    -0.4405     1.6819     1.4676
                     A'         A'         A'         A''        A'' 
    1  C  1  S   -0.009971  -0.008814  -0.004253   0.000000  -0.000000
    2  C  1  S    0.027456   0.019850   0.006548   0.000000  -0.000000
    3  C  1  X   -0.211466  -0.242451  -0.032085   0.000000  -0.000000
    4  C  1  Y   -0.286922   0.244215  -0.081718   0.000000  -0.000000
    5  C  1  Z    0.000000   0.000000   0.000000   0.097174   0.387191
    6  C  1  S   -0.013757   0.017337   0.075145   0.000000  -0.000000
    7  C  1  X   -0.067764  -0.134577  -0.042208   0.000000  -0.000000
    8  C  1  Y   -0.120185   0.170258  -0.088760   0.000000  -0.000000
    9  C  1  Z    0.000000   0.000000   0.000000   0.033626   0.311745
   10  C  1 XX    0.011951  -0.017420   0.010719   0.000000  -0.000000
   11  C  1 YY   -0.021307   0.014901  -0.010900   0.000000  -0.000000
   12  C  1 ZZ    0.000212  -0.000360  -0.000600   0.000000  -0.000000
   13  C  1 XY    0.008284   0.024939  -0.006613   0.000000  -0.000000
   14  C  1 XZ    0.000000   0.000000   0.000000  -0.010503  -0.014165
   15  C  1 YZ    0.000000   0.000000   0.000000  -0.006297  -0.006946
   16  C  2  S   -0.014896   0.016566   0.033028   0.000000  -0.000000
   17  C  2  S    0.035885  -0.029028  -0.062658   0.000000  -0.000000
   18  C  2  X    0.305610   0.215891  -0.000615   0.000000  -0.000000
   19  C  2  Y    0.059813  -0.092966   0.269573   0.000000  -0.000000
   20  C  2  Z    0.000000   0.000000   0.000000   0.272798   0.278250
   21  C  2  S    0.009453  -0.071077  -0.218979   0.000000  -0.000000
   22  C  2  X    0.120644   0.112300  -0.085876   0.000000  -0.000000
   23  C  2  Y    0.016837  -0.100964   0.159517   0.000000  -0.000000
   24  C  2  Z    0.000000   0.000000   0.000000   0.200808   0.190074
   25  C  2 XX    0.007416  -0.018064   0.012218   0.000000  -0.000000
   26  C  2 YY   -0.013435   0.010105  -0.011500   0.000000  -0.000000
   27  C  2 ZZ   -0.000664   0.001105   0.000725   0.000000  -0.000000
   28  C  2 XY    0.017782   0.023148  -0.009511   0.000000  -0.000000
   29  C  2 XZ    0.000000   0.000000   0.000000   0.003794   0.019117
   30  C  2 YZ    0.000000   0.000000   0.000000  -0.010701   0.009619
   31  C  3  S    0.018838  -0.027458   0.003552   0.000000  -0.000000
   32  C  3  S   -0.029020   0.055702  -0.019816   0.000000  -0.000000
   33  C  3  X   -0.212401   0.046110   0.110221   0.000000  -0.000000
   34  C  3  Y   -0.054679   0.098018  -0.220517   0.000000  -0.000000
   35  C  3  Z    0.000000   0.000000   0.000000   0.368793  -0.109451
   36  C  3  S   -0.108349   0.055966   0.029163   0.000000  -0.000000
   37  C  3  X   -0.061008   0.016700   0.095073   0.000000  -0.000000
   38  C  3  Y    0.002642   0.026913  -0.051766   0.000000  -0.000000
   39  C  3  Z    0.000000   0.000000   0.000000   0.237114  -0.073066
   40  C  3 XX    0.005164   0.007762   0.039509   0.000000  -0.000000
   41  C  3 YY   -0.008713  -0.007536  -0.033599   0.000000  -0.000000
   42  C  3 ZZ   -0.003113   0.000138  -0.001685   0.000000  -0.000000
   43  C  3 XY    0.025058  -0.006759  -0.031129   0.000000  -0.000000
   44  C  3 XZ    0.000000   0.000000   0.000000  -0.016555   0.018028
   45  C  3 YZ    0.000000   0.000000   0.000000   0.001808   0.017934
   46  O  4  S    0.016491  -0.003304   0.000205   0.000000  -0.000000
   47  O  4  S   -0.035315   0.004780  -0.007164   0.000000  -0.000000
   48  O  4  X    0.206321  -0.153220  -0.231908   0.000000  -0.000000
   49  O  4  Y    0.158201   0.178895   0.423245   0.000000  -0.000000
   50  O  4  Z    0.000000   0.000000   0.000000   0.323787  -0.332392
   51  O  4  S   -0.089528   0.027945   0.032157   0.000000  -0.000000
   52  O  4  X    0.125728  -0.100972  -0.179669   0.000000  -0.000000
   53  O  4  Y    0.094211   0.130911   0.339625   0.000000  -0.000000
   54  O  4  Z    0.000000   0.000000   0.000000   0.186641  -0.228167
   55  O  4 XX    0.008965  -0.011581  -0.013180   0.000000  -0.000000
   56  O  4 YY    0.002563   0.007655   0.009082   0.000000  -0.000000
   57  O  4 ZZ   -0.003567   0.000044  -0.002023   0.000000  -0.000000
   58  O  4 XY    0.011922   0.005303   0.007243   0.000000  -0.000000
   59  O  4 XZ    0.000000   0.000000   0.000000   0.024933  -0.017515
   60  O  4 YZ    0.000000   0.000000   0.000000   0.014623  -0.009130
   61  H  5  S   -0.183777   0.156575  -0.066910   0.000000  -0.000000
   62  H  5  S   -0.142918   0.109594  -0.057947   0.000000  -0.000000
   63  H  6  S   -0.006811  -0.220965   0.035803   0.000000  -0.000000
   64  H  6  S   -0.017620  -0.170372   0.046079   0.000000  -0.000000
   65  H  7  S   -0.124218  -0.180671   0.079289   0.000000  -0.000000
   66  H  7  S   -0.097473  -0.124824   0.088027   0.000000  -0.000000
   67  H  8  S   -0.112886   0.025847   0.198375   0.000000  -0.000000
   68  H  8  S   -0.089156   0.010143   0.224332   0.000000  -0.000000

                     16         17
                    0.6454     0.2051
                     A''        A'' 
    1  C  1  S    0.000000   0.000000
    2  C  1  S    0.000000   0.000000
    3  C  1  X    0.000000   0.000000
    4  C  1  Y    0.000000   0.000000
    5  C  1  Z    0.358487  -0.317192
    6  C  1  S    0.000000   0.000000
    7  C  1  X    0.000000   0.000000
    8  C  1  Y    0.000000   0.000000
    9  C  1  Z    0.376116  -0.371543
   10  C  1 XX    0.000000   0.000000
   11  C  1 YY    0.000000   0.000000
   12  C  1 ZZ    0.000000   0.000000
   13  C  1 XY    0.000000   0.000000
   14  C  1 XZ    0.002319  -0.017626
   15  C  1 YZ    0.003127  -0.008620
   16  C  2  S    0.000000   0.000000
   17  C  2  S    0.000000   0.000000
   18  C  2  X    0.000000   0.000000
   19  C  2  Y    0.000000   0.000000
   20  C  2  Z   -0.165216   0.476027
   21  C  2  S    0.000000   0.000000
   22  C  2  X    0.000000   0.000000
   23  C  2  Y    0.000000   0.000000
   24  C  2  Z   -0.207204   0.563100
   25  C  2 XX    0.000000   0.000000
   26  C  2 YY    0.000000   0.000000
   27  C  2 ZZ    0.000000   0.000000
   28  C  2 XY    0.000000   0.000000
   29  C  2 XZ    0.015853  -0.007484
   30  C  2 YZ    0.022596   0.004384
   31  C  3  S    0.000000   0.000000
   32  C  3  S    0.000000   0.000000
   33  C  3  X    0.000000   0.000000
   34  C  3  Y    0.000000   0.000000
   35  C  3  Z   -0.286279  -0.470788
   36  C  3  S    0.000000   0.000000
   37  C  3  X    0.000000   0.000000
   38  C  3  Y    0.000000   0.000000
   39  C  3  Z   -0.327580  -0.428642
   40  C  3 XX    0.000000   0.000000
   41  C  3 YY    0.000000   0.000000
   42  C  3 ZZ    0.000000   0.000000
   43  C  3 XY    0.000000   0.000000
   44  C  3 XZ   -0.015226   0.001047
   45  C  3 YZ   -0.018944   0.020561
   46  O  4  S    0.000000   0.000000
   47  O  4  S    0.000000   0.000000
   48  O  4  X    0.000000   0.000000
   49  O  4  Y    0.000000   0.000000
   50  O  4  Z    0.483475   0.242262
   51  O  4  S    0.000000   0.000000
   52  O  4  X    0.000000   0.000000
   53  O  4  Y    0.000000   0.000000
   54  O  4  Z    0.355042   0.199040
   55  O  4 XX    0.000000   0.000000
   56  O  4 YY    0.000000   0.000000
   57  O  4 ZZ    0.000000   0.000000
   58  O  4 XY    0.000000   0.000000
   59  O  4 XZ    0.006689  -0.012763
   60  O  4 YZ    0.002279  -0.004915
   61  H  5  S    0.000000   0.000000
   62  H  5  S    0.000000   0.000000
   63  H  6  S    0.000000   0.000000
   64  H  6  S    0.000000   0.000000
   65  H  7  S    0.000000   0.000000
   66  H  7  S    0.000000   0.000000
   67  H  8  S    0.000000   0.000000
   68  H  8  S    0.000000   0.000000

          ------------------------
          MCSCF OPTIMIZED ORBITALS
          ------------------------

                      1          2          3          4          5
                  -20.6001   -11.2941   -11.2519   -11.2400    -1.4113
                     A'         A'         A'         A'         A'  
    1  C  1  S    0.000006  -0.000071   0.061757   0.993626  -0.002450
    2  C  1  S    0.000038  -0.000238   0.001472   0.027902   0.007028
    3  C  1  X   -0.000020   0.000012   0.000246  -0.000370  -0.003023
    4  C  1  Y   -0.000018   0.000136   0.000121  -0.000224  -0.003873
    5  C  1  Z   -0.000000   0.000000   0.000000  -0.000000   0.000000
    6  C  1  S   -0.000070  -0.000082   0.003880  -0.011269   0.005945
    7  C  1  X    0.000026  -0.000066  -0.001307   0.000715  -0.002981
    8  C  1  Y    0.000151  -0.000675  -0.001249   0.000491   0.011178
    9  C  1  Z   -0.000000   0.000000   0.000000  -0.000000   0.000000
   10  C  1 XX    0.000024   0.000081  -0.000564  -0.001792  -0.000048
   11  C  1 YY   -0.000015   0.000032  -0.000387  -0.002086   0.000151
   12  C  1 ZZ    0.000016  -0.000120  -0.000275  -0.002622   0.000282
   13  C  1 XY   -0.000004   0.000042  -0.000057   0.000240   0.000144
   14  C  1 XZ   -0.000000   0.000000   0.000000  -0.000000   0.000000
   15  C  1 YZ   -0.000000   0.000000   0.000000  -0.000000   0.000000
   16  C  2  S   -0.000002   0.008883   0.993632  -0.062389  -0.015631
   17  C  2  S   -0.000004   0.000341   0.027827  -0.001964   0.028391
   18  C  2  X    0.000021  -0.000085   0.000419  -0.000294  -0.006822
   19  C  2  Y    0.000007   0.000125   0.000050  -0.000111  -0.022925
   20  C  2  Z   -0.000000   0.000000   0.000000  -0.000000   0.000000
   21  C  2  S   -0.000013   0.002572  -0.013076   0.004508   0.021776
   22  C  2  X   -0.000051   0.000565  -0.001293   0.001111  -0.012896
   23  C  2  Y    0.000027  -0.001200   0.001042   0.000687  -0.012722
   24  C  2  Z   -0.000000   0.000000   0.000000  -0.000000   0.000000
   25  C  2 XX   -0.000021  -0.000251  -0.001624  -0.000284  -0.000071
   26  C  2 YY    0.000006  -0.000572  -0.001864  -0.000197   0.006939
   27  C  2 ZZ   -0.000018  -0.000150  -0.002468   0.000042  -0.001426
   28  C  2 XY   -0.000069  -0.000055   0.000251  -0.000080   0.002506
   29  C  2 XZ   -0.000000   0.000000   0.000000  -0.000000   0.000000
   30  C  2 YZ   -0.000000   0.000000   0.000000  -0.000000   0.000000
   31  C  3  S   -0.000006   0.995598  -0.009232   0.000596  -0.107541
   32  C  3  S    0.000458   0.027567  -0.000256  -0.000179   0.200861
   33  C  3  X    0.000092  -0.001326   0.000030  -0.000031  -0.152628
   34  C  3  Y    0.000052  -0.000610  -0.000074   0.000010  -0.078281
   35  C  3  Z   -0.000000   0.000000   0.000000  -0.000000   0.000000
   36  C  3  S   -0.000493  -0.006750   0.004282  -0.000359   0.041547
   37  C  3  X    0.000678  -0.002791   0.000339   0.000655   0.034574
   38  C  3  Y    0.000334  -0.001658   0.001721   0.000022   0.001120
   39  C  3  Z   -0.000000   0.000000   0.000000  -0.000000   0.000000
   40  C  3 XX   -0.000637  -0.001280  -0.000215   0.000011   0.022758
   41  C  3 YY   -0.000227  -0.001836  -0.000554   0.000126  -0.005266
   42  C  3 ZZ   -0.000046  -0.002599  -0.000112  -0.000045  -0.017041
   43  C  3 XY   -0.000379   0.000689  -0.000005   0.000054   0.022868
   44  C  3 XZ   -0.000000   0.000000   0.000000  -0.000000   0.000000
   45  C  3 YZ   -0.000000   0.000000   0.000000  -0.000000   0.000000
   46  O  4  S    0.994648  -0.000281   0.000019  -0.000036  -0.199344
   47  O  4  S    0.021062   0.000685  -0.000003  -0.000152   0.446944
   48  O  4  X    0.001380   0.000172   0.000019  -0.000014   0.122462
   49  O  4  Y    0.000755   0.000084  -0.000004  -0.000008   0.067826
   50  O  4  Z   -0.000000   0.000000   0.000000  -0.000000   0.000000
   51  O  4  S    0.004915  -0.003574  -0.000315   0.000925   0.406022
   52  O  4  X    0.000067  -0.002038  -0.000002   0.000151   0.046903
   53  O  4  Y    0.000032  -0.001011  -0.000213   0.000203   0.029374
   54  O  4  Z   -0.000000   0.000000   0.000000  -0.000000   0.000000
   55  O  4 XX   -0.003705  -0.000207   0.000099  -0.000126   0.015317
   56  O  4 YY   -0.003890   0.000159   0.000079  -0.000074   0.004415
   57  O  4 ZZ   -0.004352   0.000429  -0.000026  -0.000096  -0.002952
   58  O  4 XY    0.000161  -0.000266   0.000005   0.000021   0.010593
   59  O  4 XZ   -0.000000   0.000000   0.000000  -0.000000   0.000000
   60  O  4 YZ   -0.000000   0.000000   0.000000  -0.000000   0.000000
   61  H  5  S   -0.000005   0.000047  -0.000043  -0.000133  -0.000284
   62  H  5  S   -0.000076   0.000466   0.000235   0.001933  -0.006207
   63  H  6  S    0.000023  -0.000119  -0.000112  -0.000093   0.002299
   64  H  6  S    0.000011  -0.000092  -0.000200   0.002043   0.002959
   65  H  7  S   -0.000005  -0.000027  -0.000145  -0.000078   0.005613
   66  H  7  S   -0.000035   0.000312   0.001631  -0.000281  -0.001340
   67  H  8  S   -0.000035   0.000006  -0.000118  -0.000060   0.023315
   68  H  8  S   -0.000147   0.002181  -0.000202  -0.000226  -0.011682

                      6          7          8          9         10
                   -1.0689    -0.8691    -0.7717    -0.6761    -0.6575
                     A'         A'         A'         A'         A'  
    1  C  1  S   -0.139153   0.125080   0.056405  -0.020589  -0.015528
    2  C  1  S    0.264928  -0.238736  -0.106897   0.040376   0.026106
    3  C  1  X   -0.099307  -0.023367  -0.147420   0.081808   0.238930
    4  C  1  Y   -0.054911  -0.046392   0.008094   0.187232  -0.087568
    5  C  1  Z   -0.000000  -0.000000   0.000000  -0.000000  -0.000000
    6  C  1  S    0.203715  -0.241451  -0.135518   0.062520   0.058734
    7  C  1  X   -0.008403  -0.012802  -0.045089   0.028232   0.090598
    8  C  1  Y   -0.012196  -0.016417   0.002309   0.087725  -0.043738
    9  C  1  Z   -0.000000  -0.000000   0.000000  -0.000000  -0.000000
   10  C  1 XX    0.015336  -0.008146   0.000064  -0.005158   0.001251
   11  C  1 YY    0.007462  -0.013186  -0.012750   0.012460   0.007268
   12  C  1 ZZ   -0.012079   0.009785   0.004340  -0.000737  -0.001524
   13  C  1 XY    0.006644   0.004714   0.008345  -0.005118  -0.012464
   14  C  1 XZ   -0.000000  -0.000000   0.000000  -0.000000  -0.000000
   15  C  1 YZ   -0.000000  -0.000000   0.000000  -0.000000  -0.000000
   16  C  2  S   -0.160000  -0.048787  -0.091913   0.020532   0.025390
   17  C  2  S    0.311229   0.094845   0.178611  -0.043147  -0.050088
   18  C  2  X    0.092795  -0.125153  -0.131442  -0.157936  -0.022266
   19  C  2  Y    0.013755  -0.181469   0.096236   0.064683  -0.259785
   20  C  2  Z   -0.000000  -0.000000   0.000000  -0.000000  -0.000000
   21  C  2  S    0.209028   0.104949   0.214007  -0.025804  -0.056954
   22  C  2  X   -0.005357  -0.036136  -0.048483  -0.060745   0.006789
   23  C  2  Y    0.010585  -0.040113   0.033125   0.030399  -0.106137
   24  C  2  Z   -0.000000  -0.000000   0.000000  -0.000000  -0.000000
   25  C  2 XX    0.014771  -0.007852   0.011652   0.000844  -0.009989
   26  C  2 YY    0.006884   0.017539   0.001726   0.003768   0.006697
   27  C  2 ZZ   -0.013075  -0.003192  -0.006770   0.000948   0.001995
   28  C  2 XY    0.004145  -0.008424  -0.008233  -0.000301   0.002796
   29  C  2 XZ   -0.000000  -0.000000   0.000000  -0.000000  -0.000000
   30  C  2 YZ   -0.000000  -0.000000   0.000000  -0.000000  -0.000000
   31  C  3  S   -0.053585  -0.122684   0.083973  -0.022490  -0.002280
   32  C  3  S    0.105323   0.250823  -0.170881   0.058919   0.006772
   33  C  3  X    0.056147   0.068398  -0.108888  -0.287214  -0.070714
   34  C  3  Y    0.102733   0.102612   0.160614  -0.061370   0.271258
   35  C  3  Z   -0.000000  -0.000000   0.000000  -0.000000  -0.000000
   36  C  3  S    0.085217   0.218982  -0.168475  -0.024184  -0.006355
   37  C  3  X    0.022813   0.041923  -0.066289  -0.050543  -0.046408
   38  C  3  Y    0.021898   0.022267   0.034529   0.009993   0.090836
   39  C  3  Z   -0.000000  -0.000000   0.000000  -0.000000  -0.000000
   40  C  3 XX   -0.003764   0.001789  -0.011024   0.008499  -0.000760
   41  C  3 YY    0.014150   0.012438   0.001156  -0.013947  -0.004095
   42  C  3 ZZ   -0.003299  -0.007205   0.006706  -0.005997   0.001885
   43  C  3 XY   -0.002864  -0.009677   0.002368   0.012186  -0.004284
   44  C  3 XZ   -0.000000  -0.000000   0.000000  -0.000000  -0.000000
   45  C  3 YZ   -0.000000  -0.000000   0.000000  -0.000000  -0.000000
   46  O  4  S    0.035133   0.070061  -0.044207   0.059858  -0.010689
   47  O  4  S   -0.081904  -0.162364   0.103290  -0.137681   0.022863
   48  O  4  X    0.003061   0.105217  -0.209129   0.308763  -0.227463
   49  O  4  Y    0.019737   0.089707   0.042600   0.297338   0.249830
   50  O  4  Z   -0.000000  -0.000000   0.000000  -0.000000  -0.000000
   51  O  4  S   -0.082881  -0.219789   0.152148  -0.246743   0.049450
   52  O  4  X    0.003916   0.051337  -0.112303   0.174738  -0.134390
   53  O  4  Y    0.007904   0.046775   0.023498   0.173768   0.157893
   54  O  4  Z   -0.000000  -0.000000   0.000000  -0.000000  -0.000000
   55  O  4 XX   -0.002064   0.004429  -0.015129   0.014272  -0.019191
   56  O  4 YY   -0.000244   0.000765   0.008956   0.005509   0.015394
   57  O  4 ZZ   -0.000555  -0.002540   0.002929  -0.007524   0.000393
   58  O  4 XY    0.001403   0.007852  -0.001622   0.021551   0.008865
   59  O  4 XZ   -0.000000  -0.000000   0.000000  -0.000000  -0.000000
   60  O  4 YZ   -0.000000  -0.000000   0.000000  -0.000000  -0.000000
   61  H  5  S    0.065828  -0.119832  -0.055943   0.130686  -0.015278
   62  H  5  S    0.013623  -0.046525  -0.026754   0.077182  -0.006999
   63  H  6  S    0.069879  -0.094967  -0.116508   0.000995   0.155822
   64  H  6  S    0.010574  -0.034822  -0.063344   0.001159   0.102228
   65  H  7  S    0.076360   0.041932   0.162046   0.072941  -0.092383
   66  H  7  S    0.005888   0.009012   0.080429   0.041114  -0.047278
   67  H  8  S    0.032030   0.096626  -0.156191  -0.091628  -0.093671
   68  H  8  S    0.003599   0.027113  -0.080339  -0.069425  -0.058877

                     11         12         13         14         15
                   -0.5983    -0.5454    -0.4405    -0.4753    -0.3106
                     A'         A'         A'         A''        A'' 
    1  C  1  S   -0.009971  -0.008814  -0.004253  -0.000000   0.000000
    2  C  1  S    0.027456   0.019850   0.006548  -0.000000   0.000000
    3  C  1  X   -0.211466  -0.242451  -0.032085  -0.000000   0.000000
    4  C  1  Y   -0.286922   0.244215  -0.081718  -0.000000   0.000000
    5  C  1  Z    0.000000   0.000000   0.000000   0.081639   0.367777
    6  C  1  S   -0.013757   0.017337   0.075145  -0.000000   0.000000
    7  C  1  X   -0.067764  -0.134577  -0.042208  -0.000000   0.000000
    8  C  1  Y   -0.120185   0.170258  -0.088760  -0.000000   0.000000
    9  C  1  Z    0.000000   0.000000   0.000000   0.037325   0.279132
   10  C  1 XX    0.011951  -0.017420   0.010719  -0.000000   0.000000
   11  C  1 YY   -0.021307   0.014901  -0.010900  -0.000000   0.000000
   12  C  1 ZZ    0.000212  -0.000360  -0.000600  -0.000000   0.000000
   13  C  1 XY    0.008284   0.024939  -0.006613  -0.000000   0.000000
   14  C  1 XZ    0.000000   0.000000   0.000000  -0.006878  -0.016518
   15  C  1 YZ    0.000000   0.000000   0.000000  -0.004215  -0.008437
   16  C  2  S   -0.014896   0.016566   0.033028  -0.000000   0.000000
   17  C  2  S    0.035885  -0.029028  -0.062658  -0.000000   0.000000
   18  C  2  X    0.305610   0.215891  -0.000615  -0.000000   0.000000
   19  C  2  Y    0.059813  -0.092966   0.269573  -0.000000   0.000000
   20  C  2  Z    0.000000   0.000000   0.000000   0.180030   0.347931
   21  C  2  S    0.009453  -0.071077  -0.218979  -0.000000   0.000000
   22  C  2  X    0.120644   0.112300  -0.085876  -0.000000   0.000000
   23  C  2  Y    0.016837  -0.100964   0.159517  -0.000000   0.000000
   24  C  2  Z    0.000000   0.000000   0.000000   0.118007   0.252672
   25  C  2 XX    0.007416  -0.018064   0.012218  -0.000000   0.000000
   26  C  2 YY   -0.013435   0.010105  -0.011500  -0.000000   0.000000
   27  C  2 ZZ   -0.000664   0.001105   0.000725  -0.000000   0.000000
   28  C  2 XY    0.017782   0.023148  -0.009511  -0.000000   0.000000
   29  C  2 XZ    0.000000   0.000000   0.000000   0.002592   0.018303
   30  C  2 YZ    0.000000   0.000000   0.000000  -0.009158   0.006152
   31  C  3  S    0.018838  -0.027458   0.003552  -0.000000   0.000000
   32  C  3  S   -0.029020   0.055702  -0.019816  -0.000000   0.000000
   33  C  3  X   -0.212401   0.046110   0.110221  -0.000000   0.000000
   34  C  3  Y   -0.054679   0.098018  -0.220517  -0.000000   0.000000
   35  C  3  Z    0.000000   0.000000   0.000000   0.351269  -0.032588
   36  C  3  S   -0.108349   0.055966   0.029163  -0.000000   0.000000
   37  C  3  X   -0.061008   0.016700   0.095073  -0.000000   0.000000
   38  C  3  Y    0.002642   0.026913  -0.051766  -0.000000   0.000000
   39  C  3  Z    0.000000   0.000000   0.000000   0.209727  -0.018641
   40  C  3 XX    0.005164   0.007762   0.039509  -0.000000   0.000000
   41  C  3 YY   -0.008713  -0.007536  -0.033599  -0.000000   0.000000
   42  C  3 ZZ   -0.003113   0.000138  -0.001685  -0.000000   0.000000
   43  C  3 XY    0.025058  -0.006759  -0.031129  -0.000000   0.000000
   44  C  3 XZ    0.000000   0.000000   0.000000  -0.021519   0.015401
   45  C  3 YZ    0.000000   0.000000   0.000000  -0.004637   0.019602
   46  O  4  S    0.016491  -0.003304   0.000205  -0.000000   0.000000
   47  O  4  S   -0.035315   0.004780  -0.007164  -0.000000   0.000000
   48  O  4  X    0.206321  -0.153220  -0.231908  -0.000000   0.000000
   49  O  4  Y    0.158201   0.178895   0.423245  -0.000000   0.000000
   50  O  4  Z    0.000000   0.000000   0.000000   0.436162  -0.285036
   51  O  4  S   -0.089528   0.027945   0.032157  -0.000000   0.000000
   52  O  4  X    0.125728  -0.100972  -0.179669  -0.000000   0.000000
   53  O  4  Y    0.094211   0.130911   0.339625  -0.000000   0.000000
   54  O  4  Z    0.000000   0.000000   0.000000   0.267099  -0.202955
   55  O  4 XX    0.008965  -0.011581  -0.013180  -0.000000   0.000000
   56  O  4 YY    0.002563   0.007655   0.009082  -0.000000   0.000000
   57  O  4 ZZ   -0.003567   0.000044  -0.002023  -0.000000   0.000000
   58  O  4 XY    0.011922   0.005303   0.007243  -0.000000   0.000000
   59  O  4 XZ    0.000000   0.000000   0.000000   0.028698  -0.013112
   60  O  4 YZ    0.000000   0.000000   0.000000   0.016332  -0.006402
   61  H  5  S   -0.183777   0.156575  -0.066910  -0.000000   0.000000
   62  H  5  S   -0.142918   0.109594  -0.057947  -0.000000   0.000000
   63  H  6  S   -0.006811  -0.220965   0.035803  -0.000000   0.000000
   64  H  6  S   -0.017620  -0.170372   0.046079  -0.000000   0.000000
   65  H  7  S   -0.124218  -0.180671   0.079289  -0.000000   0.000000
   66  H  7  S   -0.097473  -0.124824   0.088027  -0.000000   0.000000
   67  H  8  S   -0.112886   0.025847   0.198375  -0.000000   0.000000
   68  H  8  S   -0.089156   0.010143   0.224332  -0.000000   0.000000

                     16         17         18         19         20
                    0.0112     0.2385     0.2578     0.2607     0.3139
                     A''        A''        A'         A'         A'  
    1  C  1  S   -0.000000  -0.000000  -0.109137  -0.002642  -0.061937
    2  C  1  S   -0.000000  -0.000000   0.114409  -0.001453   0.073199
    3  C  1  X   -0.000000  -0.000000   0.153968   0.077224   0.068329
    4  C  1  Y   -0.000000  -0.000000   0.066489  -0.186345  -0.079417
    5  C  1  Z    0.395078  -0.300786  -0.000000   0.000000  -0.000000
    6  C  1  S   -0.000000  -0.000000   1.904278  -0.046598   0.970495
    7  C  1  X   -0.000000  -0.000000   0.604508   0.213877   0.179287
    8  C  1  Y   -0.000000  -0.000000   0.271188  -0.646534  -0.284837
    9  C  1  Z    0.417457  -0.352484  -0.000000   0.000000  -0.000000
   10  C  1 XX   -0.000000  -0.000000   0.003794  -0.011529  -0.016635
   11  C  1 YY   -0.000000  -0.000000  -0.011985   0.013084   0.009154
   12  C  1 ZZ   -0.000000  -0.000000  -0.005878  -0.002647  -0.000292
   13  C  1 XY   -0.000000  -0.000000  -0.000327   0.007610   0.010475
   14  C  1 XZ    0.003524  -0.017160  -0.000000   0.000000  -0.000000
   15  C  1 YZ    0.003832  -0.008267  -0.000000   0.000000  -0.000000
   16  C  2  S   -0.000000  -0.000000  -0.003188   0.068266   0.000474
   17  C  2  S   -0.000000  -0.000000  -0.019479  -0.070011  -0.006524
   18  C  2  X   -0.000000  -0.000000  -0.062842   0.172737  -0.001538
   19  C  2  Y   -0.000000  -0.000000   0.047259  -0.105487  -0.153768
   20  C  2  Z   -0.203943   0.459000  -0.000000   0.000000  -0.000000
   21  C  2  S   -0.000000  -0.000000   0.443722  -1.179321   0.007823
   22  C  2  X   -0.000000  -0.000000  -0.398665   0.547568   0.159769
   23  C  2  Y   -0.000000  -0.000000  -0.078786  -0.163010  -0.811586
   24  C  2  Z   -0.249509   0.544466  -0.000000   0.000000  -0.000000
   25  C  2 XX   -0.000000  -0.000000  -0.000704   0.013466   0.019769
   26  C  2 YY   -0.000000  -0.000000  -0.001673  -0.009295  -0.019797
   27  C  2 ZZ   -0.000000  -0.000000  -0.000745   0.003496   0.000793
   28  C  2 XY   -0.000000  -0.000000   0.003722  -0.020138   0.007154
   29  C  2 XZ    0.017284  -0.006835  -0.000000   0.000000  -0.000000
   30  C  2 YZ    0.024172   0.005553  -0.000000   0.000000  -0.000000
   31  C  3  S   -0.000000  -0.000000  -0.042639  -0.029640   0.100126
   32  C  3  S   -0.000000  -0.000000   0.052923   0.012752  -0.109116
   33  C  3  X   -0.000000  -0.000000   0.100457   0.122054  -0.205849
   34  C  3  Y   -0.000000  -0.000000  -0.088652  -0.077681   0.051796
   35  C  3  Z   -0.307673  -0.482151  -0.000000   0.000000  -0.000000
   36  C  3  S   -0.000000  -0.000000   0.545250   0.617384  -1.635491
   37  C  3  X   -0.000000  -0.000000   0.352260   0.328322  -1.102600
   38  C  3  Y   -0.000000  -0.000000  -0.494751  -0.053175  -0.151068
   39  C  3  Z   -0.331480  -0.445413  -0.000000   0.000000  -0.000000
   40  C  3 XX   -0.000000  -0.000000  -0.007440   0.005827   0.011214
   41  C  3 YY   -0.000000  -0.000000  -0.001334  -0.003683   0.008464
   42  C  3 ZZ   -0.000000  -0.000000   0.002078  -0.006338  -0.002823
   43  C  3 XY   -0.000000  -0.000000  -0.014191   0.016665   0.003537
   44  C  3 XZ   -0.011459  -0.000669  -0.000000   0.000000  -0.000000
   45  C  3 YZ   -0.018696   0.018743  -0.000000   0.000000  -0.000000
   46  O  4  S   -0.000000  -0.000000   0.013004  -0.005318   0.011757
   47  O  4  S   -0.000000  -0.000000  -0.032829   0.006119   0.021075
   48  O  4  X   -0.000000  -0.000000  -0.072662   0.012852   0.066139
   49  O  4  Y   -0.000000  -0.000000   0.008943   0.027877  -0.021247
   50  O  4  Z    0.392057   0.287349  -0.000000   0.000000  -0.000000
   51  O  4  S   -0.000000  -0.000000  -0.114310   0.070383  -0.403442
   52  O  4  X   -0.000000  -0.000000  -0.152833  -0.016921   0.003958
   53  O  4  Y   -0.000000  -0.000000   0.079173   0.074114  -0.126724
   54  O  4  Z    0.294329   0.231094  -0.000000   0.000000  -0.000000
   55  O  4 XX   -0.000000  -0.000000  -0.003109  -0.001255   0.003377
   56  O  4 YY   -0.000000  -0.000000   0.000861  -0.006123   0.020631
   57  O  4 ZZ   -0.000000  -0.000000   0.001291  -0.001540   0.010775
   58  O  4 XY   -0.000000  -0.000000   0.000257  -0.004204  -0.010045
   59  O  4 XZ    0.002787  -0.011522  -0.000000   0.000000  -0.000000
   60  O  4 YZ   -0.000054  -0.004338  -0.000000   0.000000  -0.000000
   61  H  5  S   -0.000000  -0.000000  -0.041705   0.022982   0.038698
   62  H  5  S   -0.000000  -0.000000  -1.310554   0.864203   0.004216
   63  H  6  S   -0.000000  -0.000000  -0.010872  -0.024295  -0.068593
   64  H  6  S   -0.000000  -0.000000  -1.245682  -0.807292  -1.052359
   65  H  7  S   -0.000000  -0.000000   0.012385   0.066385   0.005932
   66  H  7  S   -0.000000  -0.000000  -0.370307   1.491593   0.559975
   67  H  8  S   -0.000000  -0.000000   0.022974  -0.025763   0.033044
   68  H  8  S   -0.000000  -0.000000  -0.828034  -0.803346   1.750204

                     21         22         23         24         25
                    0.3384     0.4212     0.4883     0.5440     0.7218
                     A'         A'         A'         A'         A'  
    1  C  1  S   -0.037163  -0.028781   0.075980   0.006815   0.001711
    2  C  1  S    0.049417  -0.055303   0.026586   0.014186  -0.417253
    3  C  1  X   -0.100257   0.112820   0.007311   0.173664   0.528808
    4  C  1  Y    0.227680   0.119057   0.056868  -0.081308   0.173526
    5  C  1  Z    0.000000   0.000000  -0.000000  -0.000000  -0.000000
    6  C  1  S    0.302884   1.550257  -2.866781  -1.832907  -0.433924
    7  C  1  X   -0.663894  -0.356730   2.322462   1.870675  -0.512375
    8  C  1  Y    1.430456  -0.455809   1.744493  -0.256696   0.140331
    9  C  1  Z    0.000000   0.000000  -0.000000  -0.000000  -0.000000
   10  C  1 XX   -0.004850  -0.017497  -0.003616   0.017080  -0.062771
   11  C  1 YY    0.000293   0.026005  -0.013393  -0.039187  -0.014950
   12  C  1 ZZ   -0.001067  -0.009369   0.011417   0.004777  -0.003952
   13  C  1 XY   -0.008182   0.007671   0.034785  -0.036705  -0.017469
   14  C  1 XZ    0.000000   0.000000  -0.000000  -0.000000  -0.000000
   15  C  1 YZ    0.000000   0.000000  -0.000000  -0.000000  -0.000000
   16  C  2  S    0.079348   0.023496  -0.105694   0.046057  -0.077198
   17  C  2  S   -0.106839   0.067776   0.091962  -0.102277  -0.258683
   18  C  2  X    0.113312  -0.099875   0.230566   0.012475  -0.238333
   19  C  2  Y   -0.065833  -0.045479  -0.043018   0.181466  -0.419703
   20  C  2  Z    0.000000   0.000000  -0.000000  -0.000000  -0.000000
   21  C  2  S   -1.301266  -1.637657   3.773977  -0.171993   1.189336
   22  C  2  X    1.043705  -1.138957   2.446874   1.881916   1.082009
   23  C  2  Y   -0.801996   0.663423  -0.141289   2.983484   0.250482
   24  C  2  Z    0.000000   0.000000  -0.000000  -0.000000  -0.000000
   25  C  2 XX   -0.013554   0.001028   0.022594  -0.027361  -0.097057
   26  C  2 YY    0.018743   0.012056   0.008633   0.027286  -0.049458
   27  C  2 ZZ   -0.001006   0.005502  -0.004385  -0.006945   0.044451
   28  C  2 XY    0.018334  -0.030002  -0.004332   0.014856  -0.059394
   29  C  2 XZ    0.000000   0.000000  -0.000000  -0.000000  -0.000000
   30  C  2 YZ    0.000000   0.000000  -0.000000  -0.000000  -0.000000
   31  C  3  S   -0.021631   0.031541   0.060419  -0.074704   0.043737
   32  C  3  S    0.056945   0.029499   0.031970   0.022423  -0.308083
   33  C  3  X   -0.021442   0.056259   0.063191  -0.158932  -0.040593
   34  C  3  Y    0.139258   0.113890  -0.052904   0.360512  -0.116194
   35  C  3  Z    0.000000   0.000000  -0.000000  -0.000000  -0.000000
   36  C  3  S   -0.085840  -1.105306  -1.506937   2.707022   0.496553
   37  C  3  X   -0.495775   1.952028  -0.297131  -1.364049  -0.446364
   38  C  3  Y    0.150990   1.651982  -0.483161   1.848800  -0.825805
   39  C  3  Z    0.000000   0.000000  -0.000000  -0.000000  -0.000000
   40  C  3 XX    0.001569  -0.002689   0.009344   0.012818  -0.026232
   41  C  3 YY   -0.007681   0.004196   0.007314  -0.013776   0.027703
   42  C  3 ZZ    0.006074  -0.009992  -0.004629   0.014163  -0.024807
   43  C  3 XY    0.003067  -0.005262   0.014954   0.014062   0.069548
   44  C  3 XZ    0.000000   0.000000  -0.000000  -0.000000  -0.000000
   45  C  3 YZ    0.000000   0.000000  -0.000000  -0.000000  -0.000000
   46  O  4  S    0.011509  -0.103902  -0.028100   0.034485   0.011982
   47  O  4  S   -0.011656   0.055548   0.114414   0.039257   0.076733
   48  O  4  X    0.028420   0.122753   0.043473  -0.008676  -0.004226
   49  O  4  Y   -0.062099   0.004844   0.122339  -0.062800   0.225657
   50  O  4  Z    0.000000   0.000000  -0.000000  -0.000000  -0.000000
   51  O  4  S   -0.249814   2.332268   0.141179  -1.014492  -0.735461
   52  O  4  X   -0.019390   0.879601   0.135140  -0.196062  -0.279717
   53  O  4  Y   -0.132930   0.306059   0.236293  -0.582535  -0.002256
   54  O  4  Z    0.000000   0.000000  -0.000000  -0.000000  -0.000000
   55  O  4 XX   -0.002006  -0.007577   0.026182   0.009267   0.018296
   56  O  4 YY    0.005307  -0.048465   0.009638   0.024406   0.002730
[...]
    8  C  1  Y   -0.000000   0.304751   0.292896   0.045378  -0.000000
    9  C  1  Z    0.026355  -0.000000   0.000000   0.000000   0.200915
   10  C  1 XX   -0.000000  -0.059222   0.405723   0.030017  -0.000000
   11  C  1 YY   -0.000000   0.525885  -0.219397  -0.012085  -0.000000
   12  C  1 ZZ   -0.000000  -0.503581  -0.335451   0.152248  -0.000000
   13  C  1 XY   -0.000000  -0.072488  -0.060545  -0.633286  -0.000000
   14  C  1 XZ    0.207589  -0.000000   0.000000   0.000000  -0.352336
   15  C  1 YZ   -0.326606  -0.000000   0.000000   0.000000  -0.378190
   16  C  2  S   -0.000000  -0.034960  -0.031459   0.004976  -0.000000
   17  C  2  S   -0.000000  -0.267928  -0.411026   0.271025  -0.000000
   18  C  2  X   -0.000000  -0.092244  -0.060364   0.210726  -0.000000
   19  C  2  Y   -0.000000   0.104590  -0.085939  -0.136516  -0.000000
   20  C  2  Z    0.066195  -0.000000   0.000000   0.000000  -0.081518
   21  C  2  S   -0.000000   1.286566   1.360552   0.254176  -0.000000
   22  C  2  X   -0.000000  -0.398580   0.799056  -0.805692  -0.000000
   23  C  2  Y   -0.000000  -0.747718  -0.720229  -0.481176  -0.000000
   24  C  2  Z   -0.110130  -0.000000   0.000000   0.000000  -0.378857
   25  C  2 XX   -0.000000   0.300644   0.020127  -0.500573  -0.000000
   26  C  2 YY   -0.000000   0.192372   0.102263   0.425667  -0.000000
   27  C  2 ZZ   -0.000000  -0.497506  -0.231434   0.219288  -0.000000
   28  C  2 XY   -0.000000  -0.412491   0.498251  -0.186437  -0.000000
   29  C  2 XZ   -0.175102  -0.000000   0.000000   0.000000  -0.454364
   30  C  2 YZ    0.428471  -0.000000   0.000000   0.000000   0.468406
   31  C  3  S   -0.000000  -0.007176   0.009414   0.006722  -0.000000
   32  C  3  S   -0.000000   0.220464   0.023298  -0.101843  -0.000000
   33  C  3  X   -0.000000  -0.074306   0.127063  -0.068061  -0.000000
   34  C  3  Y   -0.000000  -0.038238  -0.181007  -0.300705  -0.000000
   35  C  3  Z    0.114648  -0.000000   0.000000   0.000000   0.102850
   36  C  3  S   -0.000000  -1.112399  -0.645629  -0.633389  -0.000000
   37  C  3  X   -0.000000   0.049869  -0.084041   0.839723  -0.000000
   38  C  3  Y   -0.000000  -0.744543  -0.731788  -0.489950  -0.000000
   39  C  3  Z    0.087301  -0.000000   0.000000   0.000000   0.326601
   40  C  3 XX   -0.000000   0.146945   0.180930   0.122699  -0.000000
   41  C  3 YY   -0.000000  -0.097289   0.087892  -0.123863  -0.000000
   42  C  3 ZZ   -0.000000  -0.174223  -0.325675  -0.031467  -0.000000
   43  C  3 XY   -0.000000   0.201795  -0.382536   0.089470  -0.000000
   44  C  3 XZ    0.186292  -0.000000   0.000000   0.000000  -0.331180
   45  C  3 YZ   -0.120411  -0.000000   0.000000   0.000000   0.539987
   46  O  4  S   -0.000000  -0.001672  -0.002576  -0.004597  -0.000000
   47  O  4  S   -0.000000  -0.119459   0.151485  -0.295267  -0.000000
   48  O  4  X   -0.000000  -0.185569   0.147131  -0.083742  -0.000000
   49  O  4  Y   -0.000000  -0.097595  -0.044781  -0.155158  -0.000000
   50  O  4  Z    0.049618  -0.000000   0.000000   0.000000   0.068777
   51  O  4  S   -0.000000   0.130375  -0.260393   0.796909  -0.000000
   52  O  4  X   -0.000000   0.082561  -0.200034   0.091937  -0.000000
   53  O  4  Y   -0.000000   0.138806   0.184446   0.390623  -0.000000
   54  O  4  Z   -0.069041  -0.000000   0.000000   0.000000  -0.215854
   55  O  4 XX   -0.000000  -0.105088  -0.192144  -0.421857  -0.000000
   56  O  4 YY   -0.000000  -0.259307  -0.144183   0.257023  -0.000000
   57  O  4 ZZ   -0.000000   0.239292   0.393003   0.037822  -0.000000
   58  O  4 XY   -0.000000   0.237542   0.310122   0.271253  -0.000000
   59  O  4 XZ   -0.551268  -0.000000   0.000000   0.000000  -0.120106
   60  O  4 YZ    0.571990  -0.000000   0.000000   0.000000  -0.471222
   61  H  5  S   -0.000000  -0.504508   0.145554   0.139735  -0.000000
   62  H  5  S   -0.000000  -0.055460  -0.158923  -0.042913  -0.000000
   63  H  6  S   -0.000000  -0.096782  -0.201933  -0.417660  -0.000000
   64  H  6  S   -0.000000   0.046899   0.196861   0.125344  -0.000000
   65  H  7  S   -0.000000  -0.578280   0.381381   0.026221  -0.000000
   66  H  7  S   -0.000000   0.010608   0.181999  -0.163938  -0.000000
   67  H  8  S   -0.000000   0.083671  -0.399502  -0.160472  -0.000000
   68  H  8  S   -0.000000  -0.105647  -0.002952  -0.339260  -0.000000

                     56         57         58         59         60
                    2.4929     2.6393     2.7430     2.7516     2.9223
                     A'         A'         A''        A'         A'' 
    1  C  1  S   -0.040503   0.028785  -0.000000   0.012956   0.000000
    2  C  1  S   -0.334550   0.074106  -0.000000   0.066557   0.000000
    3  C  1  X    0.109947   0.018188  -0.000000  -0.011474   0.000000
    4  C  1  Y    0.081839   0.025687  -0.000000   0.004512   0.000000
    5  C  1  Z   -0.000000   0.000000  -0.119636  -0.000000  -0.006649
    6  C  1  S    1.254544  -0.167954  -0.000000  -0.563015   0.000000
    7  C  1  X   -0.180641   0.193788  -0.000000  -0.223499   0.000000
    8  C  1  Y   -0.257498   0.550811  -0.000000   0.380705   0.000000
    9  C  1  Z   -0.000000   0.000000  -0.195691  -0.000000   0.004421
   10  C  1 XX    0.121159  -0.736210  -0.000000   0.043869   0.000000
   11  C  1 YY    0.547631   0.563662  -0.000000  -0.169915   0.000000
   12  C  1 ZZ   -0.699656   0.274304  -0.000000   0.163380   0.000000
   13  C  1 XY   -0.324125   0.024058  -0.000000   0.278296   0.000000
   14  C  1 XZ   -0.000000   0.000000   0.720285  -0.000000   0.046449
   15  C  1 YZ   -0.000000   0.000000   0.291673  -0.000000  -0.054200
   16  C  2  S    0.010343   0.034274  -0.000000  -0.063936   0.000000
   17  C  2  S    0.226785   0.157896  -0.000000  -0.500174   0.000000
   18  C  2  X    0.072724   0.356515  -0.000000  -0.166062   0.000000
   19  C  2  Y   -0.087590   0.454220  -0.000000  -0.035096   0.000000
   20  C  2  Z   -0.000000   0.000000   0.082209  -0.000000  -0.043978
   21  C  2  S   -0.618628  -0.687737  -0.000000   2.390666   0.000000
   22  C  2  X   -0.236071  -0.123655  -0.000000   0.086480   0.000000
   23  C  2  Y   -0.343766   0.200805  -0.000000  -1.329656   0.000000
   24  C  2  Z   -0.000000   0.000000   0.129393  -0.000000  -0.001745
   25  C  2 XX   -0.106423  -0.076539  -0.000000  -0.048808   0.000000
   26  C  2 YY   -0.135402   0.000219  -0.000000   0.526529   0.000000
   27  C  2 ZZ    0.273712   0.216050  -0.000000  -0.607810   0.000000
   28  C  2 XY    0.198116   0.025322  -0.000000  -0.147790   0.000000
   29  C  2 XZ   -0.000000   0.000000   0.711266  -0.000000  -0.050353
   30  C  2 YZ   -0.000000   0.000000   0.574330  -0.000000   0.291208
   31  C  3  S    0.049631  -0.011559  -0.000000   0.102972   0.000000
   32  C  3  S    0.249537  -0.209937  -0.000000   0.188371   0.000000
   33  C  3  X    0.119693   0.039457  -0.000000  -0.070103   0.000000
   34  C  3  Y    0.141788   0.020213  -0.000000  -0.325915   0.000000
   35  C  3  Z   -0.000000   0.000000   0.085464  -0.000000  -0.222972
   36  C  3  S   -0.567658   0.886458  -0.000000  -2.239199   0.000000
   37  C  3  X   -0.242567   0.475046  -0.000000   0.417568   0.000000
   38  C  3  Y   -0.270876   0.675542  -0.000000  -1.125789   0.000000
   39  C  3  Z   -0.000000   0.000000   0.105514  -0.000000  -0.212834
   40  C  3 XX   -0.322524  -0.216533  -0.000000  -0.566087   0.000000
   41  C  3 YY   -0.156565   0.548096  -0.000000   0.096276   0.000000
   42  C  3 ZZ    0.603924  -0.301224  -0.000000   0.715212   0.000000
   43  C  3 XY   -0.202465  -0.544117  -0.000000  -0.149466   0.000000
   44  C  3 XZ   -0.000000   0.000000  -0.246350  -0.000000   0.805023
   45  C  3 YZ   -0.000000   0.000000   0.312174  -0.000000   0.611935
   46  O  4  S    0.001022   0.004302  -0.000000   0.002213   0.000000
   47  O  4  S    0.322648   0.235919  -0.000000   0.230857   0.000000
   48  O  4  X    0.282748   0.256823  -0.000000   0.308486   0.000000
   49  O  4  Y    0.143137   0.169939  -0.000000   0.127708   0.000000
   50  O  4  Z   -0.000000   0.000000   0.017721  -0.000000   0.018786
   51  O  4  S   -0.382154  -0.041402  -0.000000   0.154546   0.000000
   52  O  4  X   -0.180758  -0.126017  -0.000000  -0.287167   0.000000
   53  O  4  Y   -0.082463  -0.179334  -0.000000   0.281155   0.000000
   54  O  4  Z   -0.000000   0.000000  -0.103409  -0.000000   0.426220
   55  O  4 XX    0.111637  -0.013930  -0.000000  -0.437938   0.000000
   56  O  4 YY    0.160330  -0.083203  -0.000000   0.490779   0.000000
   57  O  4 ZZ   -0.075491   0.313789  -0.000000   0.155907   0.000000
   58  O  4 XY   -0.142727   0.046597  -0.000000   0.095599   0.000000
   59  O  4 XZ   -0.000000   0.000000  -0.078584  -0.000000   0.871648
   60  O  4 YZ   -0.000000   0.000000  -0.224978  -0.000000   0.414111
   61  H  5  S   -0.398334  -0.421784  -0.000000   0.068656   0.000000
   62  H  5  S    0.079818  -0.108077  -0.000000  -0.030427   0.000000
   63  H  6  S   -0.485392   0.327704  -0.000000   0.242337   0.000000
   64  H  6  S   -0.036341  -0.068065  -0.000000   0.220837   0.000000
   65  H  7  S    0.258547   0.076398  -0.000000  -0.250025   0.000000
   66  H  7  S    0.013764  -0.013263  -0.000000   0.161015   0.000000
   67  H  8  S    0.173371  -0.384623  -0.000000   0.178181   0.000000
   68  H  8  S    0.051448   0.073405  -0.000000  -0.234234   0.000000

                     61         62         63         64         65
                    2.9682     3.2256     3.2883     3.3704     4.2424
                     A'         A'         A'         A'         A'  
    1  C  1  S    0.065823  -0.014170   0.028202  -0.006625  -0.016463
    2  C  1  S   -0.187005   0.042559  -0.086241   0.187665   0.258743
    3  C  1  X    0.517191  -0.182163   0.307450  -0.354025   0.042074
    4  C  1  Y    0.274702   0.025250   0.152736  -0.155646  -0.032986
    5  C  1  Z    0.000000  -0.000000   0.000000  -0.000000   0.000000
    6  C  1  S   -2.114571   0.428551  -1.153847   0.584120   0.147515
    7  C  1  X    1.006634   0.050425   0.532678  -0.357803   0.013558
    8  C  1  Y    0.417038  -0.570119   0.381563   0.035186   0.393468
    9  C  1  Z    0.000000  -0.000000   0.000000  -0.000000   0.000000
   10  C  1 XX   -0.386647   0.588306  -0.212677   0.427001  -0.198016
   11  C  1 YY   -0.099111  -0.488179  -0.007082  -0.232132  -0.107525
   12  C  1 ZZ    0.556267  -0.107654   0.190728  -0.076833  -0.050259
   13  C  1 XY   -0.789588  -0.325944  -0.366248   0.175726  -0.043303
   14  C  1 XZ    0.000000  -0.000000   0.000000  -0.000000   0.000000
   15  C  1 YZ    0.000000  -0.000000   0.000000  -0.000000   0.000000
   16  C  2  S   -0.080105   0.068851  -0.018935   0.008332   0.051175
   17  C  2  S    0.182664  -0.105552  -0.042525  -0.123834  -0.406965
   18  C  2  X    0.530101  -0.049710   0.212479  -0.226545   0.064442
   19  C  2  Y    0.075135   0.143828   0.273919  -0.256427   0.019845
   20  C  2  Z    0.000000  -0.000000   0.000000  -0.000000   0.000000
   21  C  2  S    2.434352  -1.647299   1.213121  -0.378531   0.483255
   22  C  2  X    1.144553  -0.159428   0.636671  -0.441992  -0.477921
   23  C  2  Y    0.164737   0.912584   0.216025  -0.523074  -0.281657
   24  C  2  Z    0.000000  -0.000000   0.000000  -0.000000   0.000000
   25  C  2 XX    0.741560   0.520883   0.529103  -0.331549   0.255800
   26  C  2 YY   -0.031637  -0.700590  -0.418020   0.318598   0.186491
   27  C  2 ZZ   -0.668645   0.351329  -0.128109   0.074248   0.237461
   28  C  2 XY    0.235865  -0.722125   0.296354  -0.650332   0.076912
   29  C  2 XZ    0.000000  -0.000000   0.000000  -0.000000   0.000000
   30  C  2 YZ    0.000000  -0.000000   0.000000  -0.000000   0.000000
   31  C  3  S    0.046287  -0.023380  -0.057974   0.016319   0.091584
   32  C  3  S    0.116726   0.456265  -0.817331  -0.977151  -0.887299
   33  C  3  X   -0.121544  -0.275358   0.902856   0.697355  -0.061070
   34  C  3  Y   -0.048616   0.151865   0.538213   0.392760  -0.004082
   35  C  3  Z    0.000000  -0.000000   0.000000  -0.000000   0.000000
   36  C  3  S   -0.692718   1.872539  -1.035997  -1.462656  -2.813511
   37  C  3  X   -0.353331  -0.389190   0.747557   0.518606   1.889775
   38  C  3  Y   -0.196822   0.615590   0.119856   0.239715   0.352492
   39  C  3  Z    0.000000  -0.000000   0.000000  -0.000000   0.000000
   40  C  3 XX    0.356153  -0.348449  -0.862501   0.027802   0.462773
   41  C  3 YY   -0.392055   0.662595   0.511000  -0.231631   0.459120
   42  C  3 ZZ    0.253214  -0.318208   0.157769   0.425621   0.527624
   43  C  3 XY   -0.321504  -0.085117   0.051671  -0.970998   0.070602
   44  C  3 XZ    0.000000  -0.000000   0.000000  -0.000000   0.000000
   45  C  3 YZ    0.000000  -0.000000   0.000000  -0.000000   0.000000
   46  O  4  S   -0.000253   0.017787  -0.021696  -0.020471  -0.530218
   47  O  4  S    0.114533   0.488668  -0.631032  -0.302866  -0.361642
   48  O  4  X    0.067847   0.080082   0.166430   0.321793  -0.258021
   49  O  4  Y   -0.004161   0.098944   0.113551   0.141323  -0.151751
   50  O  4  Z    0.000000  -0.000000   0.000000  -0.000000   0.000000
   51  O  4  S   -0.223283  -1.340088   2.272322   1.775970   6.412982
   52  O  4  X   -0.074788  -0.596363   1.057178   1.043263   1.183205
   53  O  4  Y   -0.163745  -0.434362   0.908126   0.311400   0.799963
   54  O  4  Z    0.000000  -0.000000   0.000000  -0.000000   0.000000
   55  O  4 XX    0.204863  -0.326152   0.403479   1.007571  -1.652171
   56  O  4 YY   -0.240776   0.130438   0.279596  -0.413574  -1.720098
   57  O  4 ZZ    0.040291   0.287973  -0.459575  -0.320939  -1.806852
   58  O  4 XY   -0.346743  -0.190199   1.022624   0.429912   0.184029
   59  O  4 XZ    0.000000  -0.000000   0.000000  -0.000000   0.000000
   60  O  4 YZ    0.000000  -0.000000   0.000000  -0.000000   0.000000
   61  H  5  S    0.219341   0.310551   0.047514   0.076308  -0.030576
   62  H  5  S   -0.050995   0.055705  -0.104567  -0.074158  -0.217511
   63  H  6  S   -0.112265  -0.325037  -0.023355   0.013810   0.090396
   64  H  6  S    0.004643  -0.109421   0.020381   0.048953  -0.009758
   65  H  7  S   -0.216736  -0.324962  -0.026109  -0.164833  -0.052585
   66  H  7  S    0.224915   0.049862   0.093129   0.105268  -0.137623
   67  H  8  S   -0.093421  -0.023238   0.200612  -0.209922  -0.047319
   68  H  8  S    0.268921   0.067588  -0.217592   0.173233  -0.205684

                     66         67         68
                    4.4882     4.5874     4.8076
                     A'         A'         A'  
    1  C  1  S   -0.257571   0.363351   0.153224
    2  C  1  S    1.893846  -2.159933  -0.951892
    3  C  1  X   -0.094663  -0.173093  -0.255183
    4  C  1  Y   -0.070922  -0.128696  -0.093668
    5  C  1  Z    0.000000   0.000000  -0.000000
    6  C  1  S    0.465173  -1.635350  -1.194964
    7  C  1  X    0.119761   0.047842   0.160831
    8  C  1  Y    0.343404   0.348875   0.010319
    9  C  1  Z    0.000000   0.000000  -0.000000
   10  C  1 XX   -1.002810   1.530345   0.904022
   11  C  1 YY   -1.066214   1.393909   0.653900
   12  C  1 ZZ   -1.001445   1.388986   0.533316
   13  C  1 XY    0.019904   0.113074   0.130770
   14  C  1 XZ    0.000000   0.000000  -0.000000
   15  C  1 YZ    0.000000   0.000000  -0.000000
   16  C  2  S   -0.311724  -0.090018  -0.347076
   17  C  2  S    1.997541   0.382869   2.141907
   18  C  2  X    0.059154  -0.233038  -0.217654
   19  C  2  Y   -0.002956  -0.209909   0.084389
   20  C  2  Z    0.000000   0.000000  -0.000000
   21  C  2  S    1.134060   0.848762   2.030483
   22  C  2  X    0.006189  -0.033560   0.267787
   23  C  2  Y   -0.224966  -0.023260  -0.106500
   24  C  2  Z    0.000000   0.000000  -0.000000
   25  C  2 XX   -1.177650  -0.560019  -1.540300
   26  C  2 YY   -1.090097  -0.161015  -1.689344
   27  C  2 ZZ   -1.207916  -0.307746  -1.286522
   28  C  2 XY    0.003877  -0.113659  -0.170340
   29  C  2 XZ    0.000000   0.000000  -0.000000
   30  C  2 YZ    0.000000   0.000000  -0.000000
   31  C  3  S   -0.220836  -0.299334   0.285521
   32  C  3  S    1.367969   1.685902  -1.693463
   33  C  3  X    0.136331   0.157712  -0.175630
   34  C  3  Y    0.133811   0.073122   0.066913
   35  C  3  Z    0.000000   0.000000  -0.000000
   36  C  3  S   -0.503015  -0.238763  -0.921647
   37  C  3  X    0.489502   1.000682  -0.511777
   38  C  3  Y    0.003545   0.195800  -0.369242
   39  C  3  Z    0.000000   0.000000  -0.000000
   40  C  3 XX   -0.989784  -1.260461   1.217943
   41  C  3 YY   -0.755815  -1.160714   1.457298
   42  C  3 ZZ   -0.776926  -1.038427   0.980298
   43  C  3 XY   -0.125546  -0.153869   0.173283
   44  C  3 XZ    0.000000   0.000000  -0.000000
   45  C  3 YZ    0.000000   0.000000  -0.000000
   46  O  4  S   -0.097650  -0.144971   0.036393
   47  O  4  S   -0.044243  -0.147727   0.065043
   48  O  4  X    0.089588   0.100309  -0.140743
   49  O  4  Y    0.052025   0.048962  -0.066857
   50  O  4  Z    0.000000   0.000000  -0.000000
   51  O  4  S    1.419908   2.259999  -0.808485
   52  O  4  X    0.427337   0.642935  -0.394382
   53  O  4  Y    0.253132   0.397743  -0.176246
   54  O  4  Z    0.000000   0.000000  -0.000000
   55  O  4 XX   -0.146569  -0.233205  -0.137324
   56  O  4 YY   -0.309990  -0.444366   0.085984
   57  O  4 ZZ   -0.348039  -0.530194   0.200860
   58  O  4 XY    0.135945   0.181044  -0.123728
   59  O  4 XZ    0.000000   0.000000  -0.000000
   60  O  4 YZ    0.000000   0.000000  -0.000000
   61  H  5  S    0.095063  -0.139042  -0.035477
   62  H  5  S   -0.350496   0.186329   0.213543
   63  H  6  S    0.151663  -0.050721  -0.070859
   64  H  6  S   -0.157967   0.404673   0.166630
   65  H  7  S    0.120767   0.010032   0.103774
   66  H  7  S   -0.217666  -0.144203  -0.267646
   67  H  8  S    0.087152   0.061006  -0.054480
   68  H  8  S   -0.201758  -0.421947   0.310033
 .....DONE WITH MCSCF ITERATIONS.....
 STEP CPU TIME =     1.82 TOTAL CPU TIME =          2.4 (      0.0 MIN)
 TOTAL WALL CLOCK TIME=          2.4 SECONDS, CPU UTILIZATION IS    99.25%

     ----------------------------------------------------------------
     PROPERTY VALUES FOR THE MCSCF SELF-CONSISTENT FIELD WAVEFUNCTION
     ----------------------------------------------------------------

 THIS MCSCF AVERAGED   2 ROOTS OF DIFFERENT ENERGY.
 SINCE NO STATE-SPECIFIC DENSITY MATRIX IS AVAILABLE,
 PROPERTIES WILL NOT BE COMPUTED.

               733303  WORDS OF DYNAMIC MEMORY USED
 EXECUTION OF GAMESS TERMINATED NORMALLY 13:54:32 30-APR-2024    
 DDI: 263640 bytes (0.3 MB / 0 MWords) used by master data server.

 ----------------------------------------
 CPU timing information for all processes
 ========================================
 0: 1.825 + 0.561 = 2.387
 ----------------------------------------
 ddikick.x: exited gracefully.
----- accounting info -----
Files used on the master node muhka were:
-rw-r--r-- 1 humbel users    19976 Apr 30 13:54 /scratch/humbel.257295/acro_cas_cs_csf.F05
-rw-r--r-- 1 humbel users 16381456 Apr 30 13:54 /scratch/humbel.257295/acro_cas_cs_csf.F08
-rw-r--r-- 1 humbel users   198792 Apr 30 13:54 /scratch/humbel.257295/acro_cas_cs_csf.F09
-rw-r--r-- 1 humbel users  2094080 Apr 30 13:54 /scratch/humbel.257295/acro_cas_cs_csf.F10
-rw-r--r-- 1 humbel users   276552 Apr 30 13:54 /scratch/humbel.257295/acro_cas_cs_csf.F11
-rw-r--r-- 1 humbel users      520 Apr 30 13:54 /scratch/humbel.257295/acro_cas_cs_csf.F12
-rw-r--r-- 1 humbel users   147896 Apr 30 13:54 /scratch/humbel.257295/acro_cas_cs_csf.F13
-rw-r--r-- 1 humbel users   400008 Apr 30 13:54 /scratch/humbel.257295/acro_cas_cs_csf.F14
-rw-r--r-- 1 humbel users   181248 Apr 30 13:54 /scratch/humbel.257295/acro_cas_cs_csf.F15
-rw-r--r-- 1 humbel users   181248 Apr 30 13:54 /scratch/humbel.257295/acro_cas_cs_csf.F16
-rw-r--r-- 1 humbel users   264960 Apr 30 13:54 /scratch/humbel.257295/acro_cas_cs_csf.F23
Tue Apr 30 01:54:35 PM CEST 2024
0.0u 0.0s 0:05.63 3.1% 0+0k 40+280io 0pf+0w
