----- GAMESS execution script 'rungms' -----
This job is running on host muhka
under operating system Linux at Tue Apr 30 12:32:45 AM CEST 2024
Available scratch disk space (Kbyte units) at beginning of the job is
Filesystem                        1K-blocks     Used  Available Use% Mounted on
/dev/mapper/vg--ctom-lv--scratch 1057840472 19339624 1038500848   2% /scratch
GAMESS temporary binary files will be written to /scratch/humbel.257278
GAMESS supplementary output files will be written to /home/humbel/di-aude/gamess/audeprog
Copying input file ./acro_cas_cs.inp to your run's scratch directory...

 Distributed Data Interface kickoff program.
 Initiating 1 compute processes on 1 nodes to run the following command:
 /home/humbel/fuming/softwares/gamess/2020-R2/gamess.xmvb.x acro_cas_cs 

          *******************************************************
          *                                                     *
          *          GAMESS VERSION = 30 SEP 2020 (R2)          *
          *                                                     *
          *              doi.org/10.1063/5.0005188              *
          *                                                     *
          **************** 64 BIT LINUX VERSION *****************

  GAMESS HAS BEEN MADE POSSIBLE WITH IMPORTANT CONTRIBUTIONS FROM
  THE FOLLOWING INDIVIDUALS (IN ALPHABETICAL ORDER):

     IVANA ADAMOVIC, CHRISTINE AIKENS, TOMOKO AKAMA,
     YURI ALEXEEV, YURIKO AOKI, POOJA ARORA, TOSHIO ASADA,
     ANDREY ASADCHEV, KIM K. BALDRIDGE, PRADIPTA BANDYOPADHYAY,
     MARIA BARYSZ, ROB BELL, JONATHAN BENTZ, COLLEEN BERTONI,
     JERRY A. BOATZ, BRETT BODE, KURT BRORSEN, KURT R. BRORSEN,
     LAIMUTIS BYTAUTAS, CALEB CARLIN, LAURA CARRINGTON,
     GALINA CHABAN, BENOIT CHAMPAGNE, WEI CHEN, MAHITO CHIBA,
     DAN CHIPMAN, CHEOL HO CHOI, TANNER CULPITT,
     DIPAYAN DATTA, PAUL DAY, ALBERT DEFUSCO,
     NUWAN DESILVA, J. EMILIANO DEUSTUA,
     TIM DUDLEY, MICHEL DUPUIS, STEVEN T. ELBERT,
     DMITRI FEDOROV, ALEX FINDLATER, GRAHAM FLETCHER,
     MARK FREITAG, CHRISTIAN FRIEDL, DAVID GARMER,
     IGOR S. GERASIMOV, KURT GLAESEMANN, MARK S. GORDON,
     JEFFREY GOUR, FENG LONG GU, EMILIE B. GUIDEZ,
     ANASTASIA GUNINA, SHARON HAMMES-SCHIFFER, MASATAKE HARUTA,
     KIMIHIKO HIRAO, YASUHIRO IKABATA, TZVETELIN IORDANOV,
     STEPHAN IRLE, KAZUYA ISHIMURA, JOE IVANIC, FRANK JENSEN,
     JAN H. JENSEN, VISVALDAS KAIRYS, MUNEAKI KAMIYA,
     MICHIO KATOUDA, NAOAKI KAWAKAMI, DAN KEMP, BERNARD KIRTMAN,
     KAZUO KITAURA, MARIUSZ KLOBUKOWSKI, MASATO KOBAYASHI,
     PRAKASHAN KORAMBATH, JACEK KORCHOWIEC, SHIRO KOSEKI,
     KAROL KOWALSKI, JIMMY KROMANN, STANISLAW KUCHARSKI,
     HENRY KURTZ, SAROM SOK LEANG, HUI LI, SHUHUA LI, WEI LI,
     JESSE LUTZ, ALEKSANDR O. LYKHIN, MARCIN MAKOWSKI,
     JOANI MATO, NIKITA MATSUNAGA, BENEDETTA MENNUCCI,
     GRANT MERRILL, NORIYUKI MINEZAWA, VLADIMIR MIRONOV,
     EISAKU MIYOSHI, JOHN A. MONTGOMERY JR., HIROTOSHI MORI,
     JONATHAN MULLIN, MONIKA MUSIAL, SHIGERU NAGASE,
     TAKESHI NAGATA, HIROMI NAKAI, TAKAHITO NAKAJIMA,
     YUYA NAKAJIMA, HARUYUKI NAKANO, HIROYA NAKATA, SEAN NEDD,
     HEATHER NETZLOFF, KIET A. NGUYEN, YOSHIO NISHIMOTO,
     BOSILJKA NJEGIC, RYAN OLSON, MIKE PAK, ROBERTO PEVERATI,
     BUU PHAM, PIOTR PIECUCH, ANNA POMOGAEVA, DAVID POOLE,
     SPENCER PRUITT, OLIVIER QUINET, LUKE ROSKOP,
     KLAUS RUEDENBERG, ANDREW SAND, TOSAPORN SATTASATHUCHANA,
     NOZOMI SAWADA, MICHAEL W. SCHMIDT, PATRICK E. SCHNEIDER,
     JUNJI SEINO, PRACHI SHARMA, JUN SHEN, JIM SHOEMAKER,
     YINAN SHU, DEJUN SI, JONATHAN SKONE, LYUDMILA SLIPCHENKO,
     TONY SMITH, JIE SONG, MARK SPACKMAN, CASPER STEINMANN,
     WALT STEVENS, PEIFENG SU, SHUJUN SU, CHET SWALINA,
     TETSUYA TAKETSUGU, ZHEN TAO, NANDUN THELLAMUREGE
     SEIKEN TOKURA, JACOPO TOMASI, TSUGUKI TOUMA, TAKAO TSUNEDA,
     HIROAKI UMEDA, JORGE LUIS GALVEZ VALLEJO, YALI WANG,
     SIMON WEBB, AARON WEST, THERESA L. WINDUS, MARTA WLOCH,
     PENG XU, KIYOSHI YAGI, SUSUMU YANAGISAWA, YANG YANG,
     SOOHAENG YOO, TAKESHI YOSHIKAWA, FEDERICO ZAHARIEV,
     TOBY ZENG

  WHO ARE SUPPORTED BY THEIR INSTITUTION/UNIVERSITY/COMPANY/GROUP
  (IN ALPHABETICAL ORDER):

     EP ANALYTICS, FACULTES UNIVERSITAIRES NOTRE-DAME DE LA PAIX,
     INSTITUTE FOR MOLECULAR SCIENCE, IOWA STATE UNIVERSITY,
     JACKSON STATE UNIVERSITY, JOHANNES KEPLER UNIVERSITY LINZ,
     KYUSHU UNIVERSITY, MICHIGAN STATE UNIVERSITY,
     MIE UNIVERSITY, MOSCOW STATE UNIVERSITY,
     N. COPERNICUS UNIVERSITY, NAGOYA UNIVERSITY,
     NANJING UNIVERSITY, NAT. INST. OF ADVANCED INDUSTRIAL
     SCIENCE AND TECHNOLOGY, NATIONAL INST. OF STANDARDS AND
     TECHNOLOGY, NESMEYANOV INSTITUTE OF ORGANOELEMENT COMPOUNDS
     OF RUSSIAN ACADEMY OF SCIENCES, OSAKA PREFECTURE UNIVERSITY,
     PENNSYLVANIA STATE UNIVERSITY, TOKYO INSTITUTE OF TECHNOLOGY,
     UNIVERSITY OF AARHUS, UNIVERSITY OF ALBERTA,
     UNIVERSITY OF CALIFORNIA AT SANTA BARBARA,
     UNIVERSITY OF COPENHAGEN, UNIVERSITY OF IOWA,
     UNIVERSITY OF MEMPHIS, UNIVERSITY OF MINNESOTA,
     UNIVERSITY OF NEBRASKA, UNIVERSITY OF NEW ENGLAND,
     UNIVERSITY OF NOTRE DAME, UNIVERSITY OF PISA,
     UNIVERSITY OF SILESIA, UNIVERSITY OF TOKYO,
     UNIVERSITY OF ZURICH, WASEDA UNIVERSITY, YALE UNIVERSITY

  GAMESS SOFTWARE MANAGEMENT TEAM FOR THIS RELEASE:
     MARK S. GORDON (TEAM LEAD),
     BRETT BODE (SENIOR ADVISOR),
     GIUSEPPE BARCA,
     COLLEEN BERTONI,
     KRISTOPHER KEIPERT (ADVISOR),
     SAROM S. LEANG (DEVELOPMENT LEAD),
     BUU PHAM,
     JORGE LUIS GALVEZ VALLEJO (WEBSITE ADMINISTRATOR),
     PENG XU

 EXECUTION OF GAMESS BEGUN 00:32:45 30-APR-2024    

            ECHO OF THE FIRST FEW INPUT CARDS -
 INPUT CARD>!   File created by MacMolPlt 7.4.3                                             
 INPUT CARD>! $CONTRL SCFTYP=NONE CITYP=ALDET RUNTYP=ENERGY                                 
 INPUT CARD>! $CONTRL SCFTYP=MCSCF  RUNTYP=ENERGY MAXIT=200 MULT=1 $END                     
 INPUT CARD> $CONTRL   MAXIT=90  MULT=1  VBTYP=NONE  $END                                   
 INPUT CARD> $CONTRL SCFTYP=RHF  RUNTYP=ENERGY MAXIT=200 MULT=1  $END                       
 INPUT CARD> $CIDET                                                                         
 INPUT CARD>  NCORE=13 NACT=4 NELS=4 ISTSYM=1 NSTATE=1                                      
 INPUT CARD>  WSTATE(1)=1.0,0.0,0.0                                                         
 INPUT CARD> $END                                                                           
 INPUT CARD> $SYSTEM TIMLIM=525600 MEMORY=1000000 $END                                      
 INPUT CARD> $BASIS GBASIS=N31 NGAUSS=6 NDFUNC=1 $END                                       
 INPUT CARD> $GUESS GUESS=MOREAD NORB=17 $END                                               
 INPUT CARD> $GUESS NORDER=1 IORDER(13)=14,13 $END                                          
 INPUT CARD> $SCF DIRSCF=.TRUE. $END                                                        
 INPUT CARD> $DET                                                                           
 INPUT CARD> PRTTOL=0.  NCORE=13  NACT=4 NELS=4 !   ISTSYM=1   STSYM=AP                     
 INPUT CARD>! PRTTOL=0.  NCORE=7  NACT=2 NELS=2 ISTSYM=6                                    
 INPUT CARD> $END                                                                           
 INPUT CARD>                                                                                
 INPUT CARD> $DATA                                                                          
 INPUT CARD>                                                                                
 INPUT CARD>  Cs                                                                            
 INPUT CARD>                                                                                
 INPUT CARD>C 6.      1.209467     1.295575   0.000000                                      
 INPUT CARD>C 6.     0.000000     0.718809    0.00000                                       
 INPUT CARD>C 6.      -0.148676    -0.750912   0.000000                                     
 INPUT CARD>O 8.      -1.214692    -1.329532   0.000000                                     
 INPUT CARD>H 1.0     1.336176     2.380594   0.000000                                      
 INPUT CARD>H 1.0     2.121140     0.688472   0.000000                                      
 INPUT CARD>H 1.0     -0.927519     1.299734   0.000000                                     
 INPUT CARD>H 1.0     0.822993    -1.313379   0.000000                                      
 INPUT CARD> $END                                                                           
 INPUT CARD> $VEC                                                                           
 INPUT CARD> 1  1 5.51520407E-06 3.63588596E-05-1.98848506E-05-1.47483115E-05-0.00000000E+00
 INPUT CARD> 1  2-9.00462281E-05 3.65144427E-05 1.28151886E-04-0.00000000E+00 2.35058543E-05
 INPUT CARD> 1  3-1.49293941E-05 1.41217944E-05-3.17571406E-06-0.00000000E+00-0.00000000E+00
 INPUT CARD> 1  4-7.95955386E-07 1.38682935E-06 1.95210423E-05 6.93822084E-06-0.00000000E+00
 INPUT CARD> 1  5-5.52142306E-05-6.56867159E-06 6.20827048E-05-0.00000000E+00-1.97730173E-05
 INPUT CARD> 1  6 5.40034640E-06-1.72746914E-05-7.04693471E-05-0.00000000E+00-0.00000000E+00
 INPUT CARD> 1  7-4.01320322E-06 4.48330815E-04 8.37785754E-05 4.44305724E-05-0.00000000E+00
 INPUT CARD> 1  8-3.39854923E-04 5.71848947E-04 3.29367340E-04-0.00000000E+00-6.31367996E-04
 INPUT CARD> 1  9-2.29460051E-04-2.64079711E-05-3.72107883E-04-0.00000000E+00-0.00000000E+00
 INPUT CARD> 1 10 9.94694430E-01 2.09405777E-02 1.37155990E-03 7.51334984E-04-0.00000000E+00
 INPUT CARD> 1 11 4.66059977E-03 4.01503977E-05 8.58495774E-06-0.00000000E+00-3.63753418E-03
 INPUT CARD> 1 12-3.82276596E-03-4.20124502E-03 1.59284164E-04-0.00000000E+00-0.00000000E+00
 INPUT CARD> 1 13-2.09147748E-06-6.35291420E-05 1.94439895E-05 5.34766521E-06-9.93865158E-07
 INPUT CARD> 1 14-2.22430807E-05-3.31158920E-05-1.29927937E-04                              
 INPUT CARD> 2  1-3.51657938E-05-2.56050362E-04 1.15568007E-05 1.50169193E-04 0.00000000E+00
 INPUT CARD> 2  2-9.01371523E-05-2.55812967E-05-7.72970994E-04 0.00000000E+00 8.30632632E-05
 INPUT CARD> 2  3 3.08176575E-05-1.25060850E-04 4.07319780E-05 0.00000000E+00 0.00000000E+00
    1000000 WORDS OF MEMORY AVAILABLE

     BASIS OPTIONS
     -------------
     GBASIS=N31          IGAUSS=       6      POLAR=POPN31  
     NDFUNC=       1     NFFUNC=       0     DIFFSP=       F
     NPFUNC=       0      DIFFS=       F     BASNAM=        


     RUN TITLE
     ---------
                                                                                 

 THE POINT GROUP OF THE MOLECULE IS CS      
 THE ORDER OF THE PRINCIPAL AXIS IS     0

 ATOM      ATOMIC                      COORDINATES (BOHR)
           CHARGE         X                   Y                   Z
 C           6.0     2.2855612212        2.4482817465        0.0000000000
 C           6.0     0.0000000000        1.3583520475        0.0000000000
 C           6.0    -0.2809569010       -1.4190179209        0.0000000000
 O           8.0    -2.2954350395       -2.5124511719        0.0000000000
 H           1.0     2.5250065114        4.4986703480        0.0000000000
 H           1.0     4.0083733816        1.3010234302        0.0000000000
 H           1.0    -1.7527567584        2.4561411169        0.0000000000
 H           1.0     1.5552312598       -2.4819264280        0.0000000000

          INTERNUCLEAR DISTANCES (ANGS.)
          ------------------------------

                1 C          2 C          3 C          4 O          5 H     

   1 C       0.0000000    1.3399513 *  2.4561477 *  3.5731966    1.0923925 *
   2 C       1.3399513 *  0.0000000    1.4772218 *  2.3814234 *  2.1323451 *
   3 C       2.4561477 *  1.4772218 *  0.0000000    1.2129267 *  3.4657056  
   4 O       3.5731966    2.3814234 *  1.2129267 *  0.0000000    4.5024396  
   5 H       1.0923925 *  2.1323451 *  3.4657056    4.5024396    0.0000000  
   6 H       1.0953181 *  2.1213569 *  2.6877297 *  3.8987325    1.8653271 *
   7 H       2.1369900 *  1.0944247 *  2.1935691 *  2.6449023 *  2.5085002 *
   8 H       2.6374236 *  2.1925112 *  1.1227243 *  2.0377490 *  3.7294495  

                6 H          7 H          8 H     

   1 C       1.0953181 *  2.1369900 *  2.6374236 *
   2 C       2.1213569 *  1.0944247 *  2.1925112 *
   3 C       2.6877297 *  2.1935691 *  1.1227243 *
   4 O       3.8987325    2.6449023 *  2.0377490 *
   5 H       1.8653271 *  2.5085002 *  3.7294495  
   6 H       0.0000000    3.1093348    2.3859156 *
   7 H       3.1093348    0.0000000    3.1452586  
   8 H       2.3859156 *  3.1452586    0.0000000  

  * ... LESS THAN  3.000


     ATOMIC BASIS SET
     ----------------
 THE CONTRACTED PRIMITIVE FUNCTIONS HAVE BEEN UNNORMALIZED
 THE CONTRACTED BASIS FUNCTIONS ARE NOW NORMALIZED TO UNITY

  SHELL TYPE  PRIMITIVE        EXPONENT          CONTRACTION COEFFICIENT(S)

 C         

      1   S       1          3047.5248800    0.001834737132
      1   S       2           457.3695180    0.014037322813
      1   S       3           103.9486850    0.068842622264
      1   S       4            29.2101553    0.232184443216
      1   S       5             9.2866630    0.467941348435
      1   S       6             3.1639270    0.362311985337

      2   L       7             7.8682723   -0.119332419775    0.068999066591
      2   L       8             1.8812885   -0.160854151696    0.316423960957
      2   L       9             0.5442493    1.143456437840    0.744308290898

      3   L      10             0.1687145    1.000000000000    1.000000000000

      4   D      11             0.8000000    1.000000000000

 C         

      5   S      12          3047.5248800    0.001834737132
      5   S      13           457.3695180    0.014037322813
      5   S      14           103.9486850    0.068842622264
      5   S      15            29.2101553    0.232184443216
      5   S      16             9.2866630    0.467941348435
      5   S      17             3.1639270    0.362311985337

      6   L      18             7.8682723   -0.119332419775    0.068999066591
      6   L      19             1.8812885   -0.160854151696    0.316423960957
      6   L      20             0.5442493    1.143456437840    0.744308290898

      7   L      21             0.1687145    1.000000000000    1.000000000000

      8   D      22             0.8000000    1.000000000000

 C         

      9   S      23          3047.5248800    0.001834737132
      9   S      24           457.3695180    0.014037322813
      9   S      25           103.9486850    0.068842622264
      9   S      26            29.2101553    0.232184443216
      9   S      27             9.2866630    0.467941348435
      9   S      28             3.1639270    0.362311985337

     10   L      29             7.8682723   -0.119332419775    0.068999066591
     10   L      30             1.8812885   -0.160854151696    0.316423960957
     10   L      31             0.5442493    1.143456437840    0.744308290898

     11   L      32             0.1687145    1.000000000000    1.000000000000

     12   D      33             0.8000000    1.000000000000

 O         

     13   S      34          5484.6716600    0.001831074430
     13   S      35           825.2349460    0.013950172200
     13   S      36           188.0469580    0.068445078098
     13   S      37            52.9645000    0.232714335992
     13   S      38            16.8975704    0.470192897984
     13   S      39             5.7996353    0.358520852987

     14   L      40            15.5396162   -0.110777549525    0.070874268231
     14   L      41             3.5999336   -0.148026262701    0.339752839147
     14   L      42             1.0137618    1.130767015354    0.727158577316

     15   L      43             0.2700058    1.000000000000    1.000000000000

     16   D      44             0.8000000    1.000000000000

 H         

     17   S      45            18.7311370    0.033494604338
     17   S      46             2.8253944    0.234726953484
     17   S      47             0.6401217    0.813757326146

     18   S      48             0.1612778    1.000000000000

 H         

     19   S      49            18.7311370    0.033494604338
     19   S      50             2.8253944    0.234726953484
     19   S      51             0.6401217    0.813757326146

     20   S      52             0.1612778    1.000000000000

 H         

     21   S      53            18.7311370    0.033494604338
     21   S      54             2.8253944    0.234726953484
     21   S      55             0.6401217    0.813757326146

     22   S      56             0.1612778    1.000000000000

 H         

     23   S      57            18.7311370    0.033494604338
     23   S      58             2.8253944    0.234726953484
     23   S      59             0.6401217    0.813757326146

     24   S      60             0.1612778    1.000000000000

 TOTAL NUMBER OF BASIS SET SHELLS             =   24
 NUMBER OF CARTESIAN GAUSSIAN BASIS FUNCTIONS =   68
 NUMBER OF ELECTRONS                          =   30
 CHARGE OF MOLECULE                           =    0
 SPIN MULTIPLICITY                            =    1
 NUMBER OF OCCUPIED ORBITALS (ALPHA)          =   15
 NUMBER OF OCCUPIED ORBITALS (BETA )          =   15
 TOTAL NUMBER OF ATOMS                        =    8
 THE NUCLEAR REPULSION ENERGY IS      102.6894631254

     $CONTRL OPTIONS
     ---------------
 SCFTYP=RHF          RUNTYP=ENERGY       EXETYP=RUN     
 MPLEVL=       0     CITYP =NONE         CCTYP =NONE         VBTYP =NONE    
 DFTTYP=NONE         TDDFT =NONE    
 MULT  =       1     ICHARG=       0     NZVAR =       0     COORD =UNIQUE  
 PP    =NONE         RELWFN=NONE         LOCAL =NONE         NUMGRD=       F
 ISPHER=      -1     NOSYM =       0     MAXIT =     200     UNITS =ANGS    
 PLTORB=       F     MOLPLT=       F     AIMPAC=       F     FRIEND=        
 NPRINT=       7     IREST =       0     GEOM  =INPUT   
 NORMF =       0     NORMP =       0     ITOL  =      20     ICUT  =       9
 INTTYP=BEST         GRDTYP=BEST         QMTTOL= 1.0E-06

     $SYSTEM OPTIONS
     ---------------
  REPLICATED MEMORY=     1000000 WORDS (ON EVERY NODE).
 DISTRIBUTED MEMDDI=           0 MILLION WORDS IN AGGREGATE,
 MEMDDI DISTRIBUTED OVER   1 PROCESSORS IS           0 WORDS/PROCESSOR.
 TOTAL MEMORY REQUESTED ON EACH PROCESSOR=     1000000 WORDS.
 TIMLIM=      525600.00 MINUTES, OR     365.0 DAYS.
 PARALL= F  BALTYP=  DLB     KDIAG=    0  COREFL= F
 MXSEQ2=     300 MXSEQ3=     150  mem10=         0  mem22=         0

 Using Gaussians for PCM contribution to MEP, params: 0.10000E+01 0.10000E-07

          ----------------
          PROPERTIES INPUT
          ----------------

     MOMENTS            FIELD           POTENTIAL          DENSITY
 IEMOM =       1   IEFLD =       0   IEPOT =       0   IEDEN =       0
 WHERE =COMASS     WHERE =NUCLEI     WHERE =NUCLEI     WHERE =NUCLEI  
 OUTPUT=BOTH       OUTPUT=BOTH       OUTPUT=BOTH       OUTPUT=BOTH    
 IEMINT=       0   IEFINT=       0                     IEDINT=       0
                                                       MORB  =       0
          EXTRAPOLATION IN EFFECT
          SOSCF IN EFFECT
 ORBITAL PRINTING OPTION: NPREO=     1    68     2     1

     -------------------------------
     INTEGRAL TRANSFORMATION OPTIONS
     -------------------------------
     NWORD  =            0
     CUTOFF = 1.0E-09     MPTRAN =       0
     DIRTRF =       T     AOINTS =DUP     

          ----------------------
          INTEGRAL INPUT OPTIONS
          ----------------------
 NOPK  =       1 NORDER=       0 SCHWRZ=       T

     ------------------------------------------
     THE POINT GROUP IS CS , NAXIS= 0, ORDER= 2
     ------------------------------------------

     DIMENSIONS OF THE SYMMETRY SUBSPACES ARE
 A'  =   52     A'' =   16

 ..... DONE SETTING UP THE RUN .....
 STEP CPU TIME =     0.04 TOTAL CPU TIME =          0.0 (      0.0 MIN)
 TOTAL WALL CLOCK TIME=          0.0 SECONDS, CPU UTILIZATION IS    94.27%

          ********************
          1 ELECTRON INTEGRALS
          ********************
 ...... END OF ONE-ELECTRON INTEGRALS ......
 STEP CPU TIME =     0.00 TOTAL CPU TIME =          0.0 (      0.0 MIN)
 TOTAL WALL CLOCK TIME=          0.0 SECONDS, CPU UTILIZATION IS    94.79%

          -------------
          GUESS OPTIONS
          -------------
          GUESS =MOREAD            NORB  =      17          NORDER=       1
          MIX   =       F          PRTMO =       F          PUNMO =       F
          TOLZ  = 1.0E-08          TOLE  = 1.0E-05
          SYMDEN=       F          PURIFY=       F

 INITIAL GUESS ORBITALS GENERATED BY MOREAD   ROUTINE.

 SYMMETRIES FOR INITIAL GUESS ORBITALS FOLLOW.   BOTH SET(S).
    15 ORBITALS ARE OCCUPIED (    4 CORE ORBITALS).
     1=A'       2=A'       3=A'       4=A'       5=A'       6=A'       7=A'  
     8=A'       9=A'      10=A'      11=A'      12=A'      13=A'      14=A'' 
    15=A''     16=A''     17=A''     18=A'      19=A'      20=A'      21=A'  
    22=A'      23=A'      24=A'      25=A'      26=A'      27=A'      28=A'  
    29=A'      30=A'      31=A'      32=A'      33=A'      34=A'      35=A'  
    36=A'      37=A'      38=A'      39=A'      40=A'      41=A'      42=A'  
    43=A'      44=A'      45=A'      46=A'      47=A'      48=A'      49=A'  
    50=A'      51=A'      52=A'      53=A'      54=A'      55=A'      56=A'  
    57=A''     58=A''     59=A''     60=A''     61=A''     62=A''     63=A'' 
    64=A''     65=A''     66=A''     67=A''     68=A'' 
 ...... END OF INITIAL ORBITAL SELECTION ......
 STEP CPU TIME =     0.00 TOTAL CPU TIME =          0.0 (      0.0 MIN)
 TOTAL WALL CLOCK TIME=          0.0 SECONDS, CPU UTILIZATION IS    95.13%

                    ----------------------
                    AO INTEGRAL TECHNOLOGY
                    ----------------------
     S,P,L SHELL ROTATED AXIS INTEGRALS, REPROGRAMMED BY
        KAZUYA ISHIMURA (IMS) AND JOSE SIERRA (SYNSTAR).
     S,P,D,L SHELL ROTATED AXIS INTEGRALS PROGRAMMED BY
        KAZUYA ISHIMURA (INSTITUTE FOR MOLECULAR SCIENCE).
     S,P,D,F,G SHELL TO TOTAL QUARTET ANGULAR MOMENTUM SUM 5,
        ERIC PROGRAM BY GRAHAM FLETCHER (ELORET AND NASA ADVANCED
        SUPERCOMPUTING DIVISION, AMES RESEARCH CENTER).
     S,P,D,F,G,L SHELL GENERAL RYS QUADRATURE PROGRAMMED BY
        MICHEL DUPUIS (PACIFIC NORTHWEST NATIONAL LABORATORY).

          --------------------
          2 ELECTRON INTEGRALS
          --------------------

 DIRECT SCF METHOD SKIPS INTEGRAL STORAGE ON DISK.
 DIRECT TRANSFORMATION SKIPS AO INTEGRAL STORAGE ON DISK.
  ...... END OF TWO-ELECTRON INTEGRALS .....
 STEP CPU TIME =     0.01 TOTAL CPU TIME =          0.1 (      0.0 MIN)
 TOTAL WALL CLOCK TIME=          0.1 SECONDS, CPU UTILIZATION IS    94.44%

          --------------------------
                 RHF SCF CALCULATION
          --------------------------

     NUCLEAR ENERGY =       102.6894631254
     MAXIT =  200     NPUNCH=    2
     EXTRAP=T  DAMP=F  SHIFT=F  RSTRCT=F  DIIS=F  DEM=F  SOSCF=T
     DENSITY MATRIX CONV=  2.00E-05
     SOSCF WILL OPTIMIZE     795 ORBITAL ROTATIONS, SOGTOL=   0.250
     MEMORY REQUIRED FOR RHF ITERS=     82496 WORDS.

 DIRECT SCF CALCULATION, SCHWRZ=T   FDIFF=T,  DIRTHR=  0.00E+00 NITDIR=10
 SCHWARZ INEQUALITY OVERHEAD:      2343 INTEGRALS, T=        0.00

                                                                                   NONZERO     BLOCKS
 ITER EX DEM     TOTAL ENERGY        E CHANGE  DENSITY CHANGE     ORB. GRAD      INTEGRALS    SKIPPED
   1  0  0     -190.7596364874  -190.7596364874   0.000002671   0.000000000        1400027       4330
          ---------------START SECOND ORDER SCF---------------
   2  1  0     -190.7596364875    -0.0000000001   0.000001379   0.000000742        1143822      16060

          -----------------
          DENSITY CONVERGED
          -----------------
     TIME TO FORM FOCK OPERATORS=       0.3 SECONDS (       0.1 SEC/ITER)
     FOCK TIME ON FIRST ITERATION=       0.2, LAST ITERATION=       0.1
     TIME TO SOLVE SCF EQUATIONS=       0.0 SECONDS (       0.0 SEC/ITER)

 FINAL RHF ENERGY IS     -190.7596364875 AFTER   2 ITERATIONS

          ------------
          EIGENVECTORS
          ------------

                      1          2          3          4          5
                  -20.5656   -11.3393   -11.2733   -11.2567    -1.3886
                     A'         A'         A'         A'         A'  
    1  C  1  S    0.000006  -0.000035   0.994445  -0.048896  -0.003572
    2  C  1  S    0.000036  -0.000256   0.027239  -0.001640   0.008894
    3  C  1  X   -0.000020   0.000012  -0.000028   0.000208  -0.003871
    4  C  1  Y   -0.000015   0.000150  -0.000071   0.000122  -0.004498
    5  C  1  Z   -0.000000   0.000000   0.000000   0.000000   0.000000
    6  C  1  S   -0.000090  -0.000090  -0.011129   0.005098   0.006203
    7  C  1  X    0.000037  -0.000026   0.000494  -0.001359  -0.002038
    8  C  1  Y    0.000128  -0.000773   0.000363  -0.001370   0.009676
    9  C  1  Z   -0.000000   0.000000   0.000000   0.000000   0.000000
   10  C  1 XX    0.000024   0.000083  -0.001660  -0.000299  -0.000079
   11  C  1 YY   -0.000015   0.000031  -0.001891  -0.000169   0.000112
   12  C  1 ZZ    0.000014  -0.000125  -0.002516   0.000052   0.000273
   13  C  1 XY   -0.000003   0.000041   0.000198  -0.000040   0.000244
   14  C  1 XZ   -0.000000   0.000000   0.000000   0.000000   0.000000
   15  C  1 YZ   -0.000000   0.000000   0.000000   0.000000   0.000000
   16  C  2  S   -0.000001   0.004297   0.048246   0.994461  -0.018283
   17  C  2  S    0.000001   0.000247   0.001044   0.027710   0.034206
   18  C  2  X    0.000020  -0.000093  -0.000200   0.000270  -0.007319
   19  C  2  Y    0.000007   0.000144  -0.000082  -0.000224  -0.026185
   20  C  2  Z   -0.000000   0.000000   0.000000   0.000000   0.000000
   21  C  2  S   -0.000055   0.002719   0.003386  -0.013386   0.020103
   22  C  2  X   -0.000007   0.000585   0.001258  -0.001280  -0.009914
   23  C  2  Y    0.000062  -0.001143   0.000736   0.001089  -0.009430
   24  C  2  Z   -0.000000   0.000000   0.000000   0.000000   0.000000
   25  C  2 XX   -0.000020  -0.000236  -0.000375  -0.001585   0.000128
   26  C  2 YY    0.000005  -0.000641  -0.000389  -0.001761   0.007743
   27  C  2 ZZ   -0.000017  -0.000148  -0.000196  -0.002399  -0.001752
   28  C  2 XY   -0.000070  -0.000058   0.000006   0.000236   0.002599
   29  C  2 XZ   -0.000000   0.000000   0.000000   0.000000   0.000000
   30  C  2 YZ   -0.000000   0.000000   0.000000   0.000000   0.000000
   31  C  3  S   -0.000004   0.995755  -0.000243  -0.004655  -0.113518
   32  C  3  S    0.000448   0.026613  -0.000177  -0.000054   0.216972
   33  C  3  X    0.000084  -0.000596  -0.000021   0.000040  -0.154741
   34  C  3  Y    0.000044  -0.000173  -0.000007  -0.000102  -0.078025
   35  C  3  Z   -0.000000   0.000000   0.000000   0.000000   0.000000
   36  C  3  S   -0.000340  -0.007431   0.000000   0.004220   0.062602
   37  C  3  X    0.000572  -0.002840   0.000511   0.000191   0.029005
   38  C  3  Y    0.000329  -0.001661   0.000095   0.001636   0.001691
   39  C  3  Z   -0.000000   0.000000   0.000000   0.000000   0.000000
   40  C  3 XX   -0.000631  -0.001141  -0.000011  -0.000222   0.021673
   41  C  3 YY   -0.000229  -0.001526   0.000054  -0.000644  -0.005728
   42  C  3 ZZ   -0.000026  -0.002478  -0.000047  -0.000129  -0.016843
   43  C  3 XY   -0.000372   0.000573   0.000053  -0.000012   0.022213
   44  C  3 XZ   -0.000000   0.000000   0.000000   0.000000   0.000000
   45  C  3 YZ   -0.000000   0.000000   0.000000   0.000000   0.000000
   46  O  4  S    0.994694  -0.000315  -0.000030   0.000020  -0.195564
   47  O  4  S    0.020941   0.000573  -0.000133   0.000009   0.432415
   48  O  4  X    0.001372   0.000253  -0.000010   0.000024   0.119426
   49  O  4  Y    0.000751   0.000128  -0.000013  -0.000011   0.066668
   50  O  4  Z   -0.000000   0.000000   0.000000   0.000000   0.000000
   51  O  4  S    0.004661  -0.002802   0.000738  -0.000428   0.395400
   52  O  4  X    0.000040  -0.001549   0.000117  -0.000024   0.045546
   53  O  4  Y    0.000009  -0.000738   0.000185  -0.000205   0.028355
   54  O  4  Z   -0.000000   0.000000   0.000000   0.000000   0.000000
   55  O  4 XX   -0.003638  -0.000050  -0.000105   0.000112   0.013397
   56  O  4 YY   -0.003823   0.000114  -0.000049   0.000086   0.002480
   57  O  4 ZZ   -0.004201   0.000373  -0.000090  -0.000025  -0.002252
   58  O  4 XY    0.000159  -0.000081   0.000023   0.000004   0.010621
   59  O  4 XZ   -0.000000   0.000000   0.000000   0.000000   0.000000
   60  O  4 YZ   -0.000000   0.000000   0.000000   0.000000   0.000000
   61  H  5  S   -0.000002   0.000056  -0.000151  -0.000015   0.000154
   62  H  5  S   -0.000064   0.000512   0.002000   0.000034  -0.005604
   63  H  6  S    0.000019  -0.000133  -0.000122  -0.000109   0.002620
   64  H  6  S    0.000005  -0.000137   0.002099  -0.000461   0.002385
   65  H  7  S   -0.000001  -0.000029  -0.000080  -0.000131   0.006953
   66  H  7  S   -0.000022   0.000280  -0.000020   0.001651  -0.000560
   67  H  8  S   -0.000033   0.000000  -0.000053  -0.000103   0.026785
   68  H  8  S   -0.000130   0.002321  -0.000210  -0.000150  -0.011165

                      6          7          8          9         10
                   -1.0821    -0.8814    -0.7799    -0.6664    -0.6599
                     A'         A'         A'         A'         A'  
    1  C  1  S   -0.140532   0.127802   0.049433  -0.016104  -0.006310
    2  C  1  S    0.268091  -0.248580  -0.095799   0.031941   0.009441
    3  C  1  X   -0.091759  -0.036770  -0.161074   0.199377   0.209068
    4  C  1  Y   -0.053292  -0.054635   0.013075   0.207285  -0.181009
    5  C  1  Z   -0.000000   0.000000   0.000000  -0.000000  -0.000000
    6  C  1  S    0.209894  -0.237435  -0.121396   0.058042   0.018384
    7  C  1  X   -0.006614  -0.023002  -0.051279   0.076516   0.087505
    8  C  1  Y   -0.010627  -0.021075   0.007360   0.097423  -0.086194
    9  C  1  Z   -0.000000   0.000000   0.000000  -0.000000  -0.000000
   10  C  1 XX    0.013848  -0.008174  -0.000902  -0.006483   0.006622
   11  C  1 YY    0.006848  -0.014064  -0.012275   0.018650  -0.000801
   12  C  1 ZZ   -0.011809   0.011256   0.005119  -0.001878  -0.001558
   13  C  1 XY    0.006169   0.005013   0.008570  -0.008764  -0.012391
   14  C  1 XZ   -0.000000   0.000000   0.000000  -0.000000  -0.000000
   15  C  1 YZ   -0.000000   0.000000   0.000000  -0.000000  -0.000000
   16  C  2  S   -0.157970  -0.051177  -0.094084   0.029099   0.012376
   17  C  2  S    0.302519   0.103057   0.181929  -0.058925  -0.022874
   18  C  2  X    0.089219  -0.118123  -0.126772  -0.213762   0.024770
   19  C  2  Y    0.005381  -0.183714   0.106127  -0.054068  -0.255051
   20  C  2  Z   -0.000000   0.000000   0.000000  -0.000000  -0.000000
   21  C  2  S    0.215104   0.092906   0.223325  -0.029782  -0.025059
   22  C  2  X   -0.001863  -0.040341  -0.043170  -0.071712   0.033063
   23  C  2  Y    0.003234  -0.040263   0.029195  -0.012933  -0.097264
   24  C  2  Z   -0.000000   0.000000   0.000000  -0.000000  -0.000000
   25  C  2 XX    0.013187  -0.007275   0.013077  -0.004319  -0.008225
   26  C  2 YY    0.006530   0.019388   0.000193   0.009958   0.005243
   27  C  2 ZZ   -0.012000  -0.004840  -0.007089   0.000953   0.000568
   28  C  2 XY    0.003705  -0.007617  -0.006699  -0.001427   0.002778
   29  C  2 XZ   -0.000000   0.000000   0.000000  -0.000000  -0.000000
   30  C  2 YZ   -0.000000   0.000000   0.000000  -0.000000  -0.000000
   31  C  3  S   -0.052044  -0.117092   0.083941  -0.040192   0.015634
   32  C  3  S    0.106926   0.249018  -0.174230   0.099359  -0.033107
   33  C  3  X    0.067710   0.099266  -0.154849  -0.249779  -0.032704
   34  C  3  Y    0.111448   0.122439   0.149517   0.038413   0.288946
   35  C  3  Z   -0.000000   0.000000   0.000000  -0.000000  -0.000000
   36  C  3  S    0.072425   0.206752  -0.181280   0.028646  -0.030638
   37  C  3  X    0.026971   0.054404  -0.083489  -0.052120  -0.051365
   38  C  3  Y    0.019523   0.027333   0.025839   0.034303   0.091223
   39  C  3  Z   -0.000000   0.000000   0.000000  -0.000000  -0.000000
   40  C  3 XX   -0.004183   0.000832  -0.012551   0.002610  -0.006813
   41  C  3 YY    0.015316   0.014396   0.002579  -0.009072   0.003400
   42  C  3 ZZ   -0.004191  -0.008448   0.007047  -0.004766   0.003145
   43  C  3 XY   -0.002754  -0.010511   0.006957   0.004368   0.000510
   44  C  3 XZ   -0.000000   0.000000   0.000000  -0.000000  -0.000000
   45  C  3 YZ   -0.000000   0.000000   0.000000  -0.000000  -0.000000
   46  O  4  S    0.038097   0.066677  -0.039452   0.059775  -0.028811
   47  O  4  S   -0.087755  -0.153884   0.093109  -0.136442   0.065147
   48  O  4  X   -0.002602   0.069088  -0.150058   0.212471  -0.250687
   49  O  4  Y    0.014533   0.064516   0.050359   0.289334   0.123658
   50  O  4  Z   -0.000000   0.000000   0.000000  -0.000000  -0.000000
   51  O  4  S   -0.082916  -0.190437   0.119591  -0.242422   0.115747
   52  O  4  X    0.002273   0.034720  -0.079944   0.117704  -0.142432
   53  O  4  Y    0.006470   0.034393   0.024194   0.168190   0.076048
   54  O  4  Z   -0.000000   0.000000   0.000000  -0.000000  -0.000000
   55  O  4 XX   -0.002593   0.001864  -0.011099   0.008912  -0.019422
   56  O  4 YY   -0.000293   0.000266   0.008652   0.008368   0.011714
   57  O  4 ZZ   -0.000168  -0.001091   0.001662  -0.004790   0.001459
   58  O  4 XY    0.000858   0.005446   0.000285   0.019951   0.002303
   59  O  4 XZ   -0.000000   0.000000   0.000000  -0.000000  -0.000000
   60  O  4 YZ   -0.000000   0.000000   0.000000  -0.000000  -0.000000
   61  H  5  S    0.067476  -0.127030  -0.048862   0.150788  -0.081675
   62  H  5  S    0.012025  -0.047480  -0.023849   0.093017  -0.048727
   63  H  6  S    0.072802  -0.101004  -0.119079   0.047504   0.163909
   64  H  6  S    0.010290  -0.035510  -0.064117   0.032649   0.107036
   65  H  7  S    0.072893   0.040477   0.162665   0.056316  -0.099853
   66  H  7  S    0.005601   0.006931   0.078670   0.033948  -0.051399
   67  H  8  S    0.033637   0.100631  -0.174644  -0.083099  -0.103103
   68  H  8  S    0.003192   0.026421  -0.088677  -0.063880  -0.060019

                     11         12         13         14         15
                   -0.6000    -0.5534    -0.5377    -0.4255    -0.3944
                     A'         A'         A''        A'         A'' 
    1  C  1  S   -0.014958  -0.011719  -0.000000  -0.006197  -0.000000
    2  C  1  S    0.035255   0.026325  -0.000000   0.009891  -0.000000
    3  C  1  X   -0.176737  -0.232155  -0.000000  -0.045515  -0.000000
    4  C  1  Y   -0.257560   0.223232  -0.000000  -0.060178  -0.000000
    5  C  1  Z   -0.000000   0.000000   0.091043   0.000000   0.346130
    6  C  1  S    0.006744   0.016693  -0.000000   0.098382  -0.000000
    7  C  1  X   -0.058673  -0.122640  -0.000000  -0.059744  -0.000000
    8  C  1  Y   -0.109551   0.161371  -0.000000  -0.078345  -0.000000
    9  C  1  Z   -0.000000   0.000000   0.060579   0.000000   0.287502
   10  C  1 XX    0.010465  -0.019302  -0.000000   0.008763  -0.000000
   11  C  1 YY   -0.019458   0.016470  -0.000000  -0.008772  -0.000000
   12  C  1 ZZ    0.000788  -0.000197  -0.000000  -0.000700  -0.000000
   13  C  1 XY    0.004012   0.025899  -0.000000  -0.004795  -0.000000
   14  C  1 XZ   -0.000000   0.000000  -0.007450   0.000000  -0.021462
   15  C  1 YZ   -0.000000   0.000000  -0.004584   0.000000  -0.011294
   16  C  2  S   -0.009189   0.015488  -0.000000   0.033732  -0.000000
   17  C  2  S    0.020057  -0.027822  -0.000000  -0.062706  -0.000000
   18  C  2  X    0.254812   0.237108  -0.000000   0.016583  -0.000000
   19  C  2  Y    0.073555  -0.139327  -0.000000   0.238561  -0.000000
   20  C  2  Z   -0.000000   0.000000   0.147814   0.000000   0.353701
   21  C  2  S    0.000361  -0.060747  -0.000000  -0.258579  -0.000000
   22  C  2  X    0.097452   0.133823  -0.000000  -0.090401  -0.000000
   23  C  2  Y    0.026041  -0.124433  -0.000000   0.146085  -0.000000
   24  C  2  Z   -0.000000   0.000000   0.090224   0.000000   0.287505
   25  C  2 XX    0.006881  -0.020780  -0.000000   0.010235  -0.000000
   26  C  2 YY   -0.013170   0.011655  -0.000000  -0.011434  -0.000000
   27  C  2 ZZ    0.000477   0.001236  -0.000000   0.001591  -0.000000
   28  C  2 XY    0.014988   0.024697  -0.000000  -0.006656  -0.000000
   29  C  2 XZ   -0.000000   0.000000   0.004361   0.000000   0.023476
   30  C  2 YZ   -0.000000   0.000000  -0.007076   0.000000   0.007502
   31  C  3  S    0.002699  -0.024094  -0.000000   0.002311  -0.000000
   32  C  3  S    0.007131   0.053021  -0.000000  -0.019884  -0.000000
   33  C  3  X   -0.268751   0.011477  -0.000000   0.088826  -0.000000
   34  C  3  Y   -0.097857   0.150201  -0.000000  -0.177189  -0.000000
   35  C  3  Z   -0.000000   0.000000   0.322965   0.000000  -0.041843
   36  C  3  S   -0.076117   0.035126  -0.000000   0.030309  -0.000000
   37  C  3  X   -0.071529  -0.003868  -0.000000   0.085760  -0.000000
   38  C  3  Y   -0.009777   0.047251  -0.000000  -0.004456  -0.000000
   39  C  3  Z   -0.000000   0.000000   0.196358   0.000000  -0.037873
   40  C  3 XX    0.004178   0.003408  -0.000000   0.043312  -0.000000
   41  C  3 YY   -0.009805  -0.004244  -0.000000  -0.038857  -0.000000
   42  C  3 ZZ   -0.003727  -0.000128  -0.000000  -0.001727  -0.000000
   43  C  3 XY    0.025590  -0.000285  -0.000000  -0.033859  -0.000000
   44  C  3 XZ   -0.000000   0.000000  -0.027525   0.000000   0.018890
   45  C  3 YZ   -0.000000   0.000000  -0.008954   0.000000   0.021783
   46  O  4  S    0.037143  -0.004768  -0.000000  -0.000273  -0.000000
   47  O  4  S   -0.081378   0.008201  -0.000000  -0.008043  -0.000000
   48  O  4  X    0.299488  -0.128580  -0.000000  -0.256332  -0.000000
   49  O  4  Y    0.184197   0.153655  -0.000000   0.469202  -0.000000
   50  O  4  Z   -0.000000   0.000000   0.445844   0.000000  -0.235158
   51  O  4  S   -0.184730   0.032541  -0.000000   0.044699  -0.000000
   52  O  4  X    0.176687  -0.080252  -0.000000  -0.194071  -0.000000
   53  O  4  Y    0.105496   0.108441  -0.000000   0.373751  -0.000000
   54  O  4  Z   -0.000000   0.000000   0.314244   0.000000  -0.194259
   55  O  4 XX    0.015381  -0.011277  -0.000000  -0.016627  -0.000000
   56  O  4 YY    0.002619   0.007511  -0.000000   0.011556  -0.000000
   57  O  4 ZZ   -0.003790  -0.000277  -0.000000  -0.002712  -0.000000
   58  O  4 XY    0.015417   0.005551  -0.000000   0.009663  -0.000000
   59  O  4 XZ   -0.000000   0.000000   0.033414   0.000000  -0.014275
   60  O  4 YZ   -0.000000   0.000000   0.018623   0.000000  -0.007237
   61  H  5  S   -0.159602   0.148842  -0.000000  -0.049843  -0.000000
   62  H  5  S   -0.124238   0.101598  -0.000000  -0.043435  -0.000000
   63  H  6  S    0.007579  -0.208573  -0.000000   0.020586  -0.000000
   64  H  6  S   -0.005317  -0.164453  -0.000000   0.032807  -0.000000
   65  H  7  S   -0.099602  -0.205491  -0.000000   0.054935  -0.000000
   66  H  7  S   -0.081241  -0.137728  -0.000000   0.065688  -0.000000
   67  H  8  S   -0.112998  -0.016659  -0.000000   0.184921  -0.000000
   68  H  8  S   -0.092413  -0.024714  -0.000000   0.224890  -0.000000

                     16         17         18         19         20
                    0.0913     0.2419     0.2440     0.2543     0.3018
                     A''        A''        A'         A'         A'  
    1  C  1  S    0.000000   0.000000  -0.104792   0.028606  -0.056765
    2  C  1  S    0.000000   0.000000   0.113478  -0.037860   0.066465
    3  C  1  X    0.000000   0.000000   0.175035   0.041284   0.095218
    4  C  1  Y    0.000000   0.000000   0.022092  -0.207425  -0.115888
    5  C  1  Z    0.323644  -0.150609   0.000000  -0.000000  -0.000000
    6  C  1  S    0.000000   0.000000   1.807016  -0.555518   0.910658
    7  C  1  X    0.000000   0.000000   0.640588   0.082948   0.282714
    8  C  1  Y    0.000000   0.000000   0.109108  -0.759325  -0.488959
    9  C  1  Z    0.540828  -0.537708   0.000000  -0.000000  -0.000000
   10  C  1 XX    0.000000   0.000000   0.002749  -0.010094  -0.017101
   11  C  1 YY    0.000000   0.000000  -0.009449   0.014551   0.009925
   12  C  1 ZZ    0.000000   0.000000  -0.007283  -0.001356  -0.000825
   13  C  1 XY    0.000000   0.000000   0.002113   0.005786   0.011428
   14  C  1 XZ    0.010087  -0.026308   0.000000  -0.000000  -0.000000
   15  C  1 YZ    0.007830  -0.003937   0.000000  -0.000000  -0.000000
   16  C  2  S    0.000000   0.000000   0.011825   0.063276  -0.004431
   17  C  2  S    0.000000   0.000000  -0.032739  -0.061118   0.002419
   18  C  2  X    0.000000   0.000000  -0.020230   0.172473  -0.005558
   19  C  2  Y    0.000000   0.000000   0.025285  -0.092175  -0.157673
   20  C  2  Z   -0.207398   0.322352   0.000000  -0.000000  -0.000000
   21  C  2  S    0.000000   0.000000   0.159830  -1.186391   0.062958
   22  C  2  X    0.000000   0.000000  -0.263219   0.543568   0.086319
   23  C  2  Y    0.000000   0.000000  -0.076976  -0.039150  -0.671886
   24  C  2  Z   -0.363516   0.767379   0.000000  -0.000000  -0.000000
   25  C  2 XX    0.000000   0.000000   0.001918   0.011651   0.020642
   26  C  2 YY    0.000000   0.000000  -0.003513  -0.007505  -0.021184
   27  C  2 ZZ    0.000000   0.000000   0.000470   0.003190   0.001842
   28  C  2 XY    0.000000   0.000000  -0.001772  -0.022448   0.004166
   29  C  2 XZ    0.017479  -0.011825   0.000000  -0.000000  -0.000000
   30  C  2 YZ    0.025626   0.018837   0.000000  -0.000000  -0.000000
   31  C  3  S    0.000000   0.000000  -0.048364  -0.025184   0.097983
   32  C  3  S    0.000000   0.000000   0.058342   0.005313  -0.120467
   33  C  3  X    0.000000   0.000000   0.138338   0.110489  -0.206561
   34  C  3  Y    0.000000   0.000000  -0.103343  -0.065562   0.030720
   35  C  3  Z   -0.274737  -0.347568   0.000000  -0.000000  -0.000000
   36  C  3  S    0.000000   0.000000   0.682406   0.597780  -1.526849
   37  C  3  X    0.000000   0.000000   0.441147   0.322830  -0.987127
   38  C  3  Y    0.000000   0.000000  -0.461368   0.068223  -0.128148
   39  C  3  Z   -0.348084  -0.751163   0.000000  -0.000000  -0.000000
   40  C  3 XX    0.000000   0.000000  -0.004061   0.008383   0.008194
   41  C  3 YY    0.000000   0.000000  -0.003851  -0.005578   0.011715
   42  C  3 ZZ    0.000000   0.000000   0.000052  -0.006888  -0.003049
   43  C  3 XY    0.000000   0.000000  -0.010459   0.020268   0.002852
   44  C  3 XZ   -0.019051  -0.022910   0.000000  -0.000000  -0.000000
   45  C  3 YZ   -0.023916   0.012250   0.000000  -0.000000  -0.000000
   46  O  4  S    0.000000   0.000000   0.009840  -0.009052   0.009715
   47  O  4  S    0.000000   0.000000  -0.026518   0.010101   0.023774
   48  O  4  X    0.000000   0.000000  -0.067483   0.023055   0.061834
   49  O  4  Y    0.000000   0.000000   0.019792   0.031064  -0.015987
   50  O  4  Z    0.282051   0.240548   0.000000  -0.000000  -0.000000
   51  O  4  S    0.000000   0.000000  -0.068552   0.125535  -0.351768
   52  O  4  X    0.000000   0.000000  -0.144293   0.017352   0.012810
   53  O  4  Y    0.000000   0.000000   0.100244   0.065986  -0.109719
   54  O  4  Z    0.341946   0.407038   0.000000  -0.000000  -0.000000
   55  O  4 XX    0.000000   0.000000  -0.004201  -0.002005   0.006346
   56  O  4 YY    0.000000   0.000000  -0.000082  -0.007471   0.018667
   57  O  4 ZZ    0.000000   0.000000   0.001052  -0.003129   0.010373
   58  O  4 XY    0.000000   0.000000  -0.000268  -0.003382  -0.008518
   59  O  4 XZ    0.003281  -0.004576   0.000000  -0.000000  -0.000000
   60  O  4 YZ   -0.000449   0.003759   0.000000  -0.000000  -0.000000
   61  H  5  S    0.000000   0.000000  -0.039803   0.032438   0.040985
   62  H  5  S    0.000000   0.000000  -1.062975   1.244303   0.248714
   63  H  6  S    0.000000   0.000000  -0.016880  -0.015254  -0.070709
   64  H  6  S    0.000000   0.000000  -1.392796  -0.491154  -1.245378
   65  H  7  S    0.000000   0.000000   0.026482   0.064226   0.011854
   66  H  7  S    0.000000   0.000000  -0.037468   1.385242   0.438253
   67  H  8  S    0.000000   0.000000   0.016198  -0.036171   0.039638
   68  H  8  S    0.000000   0.000000  -1.004252  -0.715643   1.641773

                     21         22         23         24         25
                    0.3319     0.4225     0.4802     0.5357     0.7159
                     A'         A'         A'         A'         A'  
    1  C  1  S   -0.043273  -0.029400   0.074713   0.005050   0.005000
    2  C  1  S    0.059257  -0.060477   0.012556   0.021428  -0.450329
    3  C  1  X   -0.081753   0.120925   0.011651   0.161638   0.532381
    4  C  1  Y    0.211681   0.117258   0.055303  -0.090482   0.204812
    5  C  1  Z   -0.000000  -0.000000  -0.000000   0.000000   0.000000
    6  C  1  S    0.409252   1.643572  -2.814156  -1.741071  -0.483634
    7  C  1  X   -0.623959  -0.473290   2.373121   1.763783  -0.396953
    8  C  1  Y    1.323592  -0.624428   1.682744  -0.291120   0.108027
    9  C  1  Z   -0.000000  -0.000000  -0.000000   0.000000   0.000000
   10  C  1 XX   -0.008810  -0.016140  -0.003243   0.021406  -0.063630
   11  C  1 YY    0.004275   0.026972  -0.014403  -0.040743  -0.019287
   12  C  1 ZZ   -0.001868  -0.011006   0.011573   0.004603  -0.002278
   13  C  1 XY   -0.005218   0.006076   0.036770  -0.039057  -0.010182
   14  C  1 XZ   -0.000000  -0.000000  -0.000000   0.000000   0.000000
   15  C  1 YZ   -0.000000  -0.000000  -0.000000   0.000000   0.000000
   16  C  2  S    0.083681   0.028443  -0.102261   0.050326  -0.079169
   17  C  2  S   -0.109659   0.064111   0.085543  -0.101229  -0.301799
   18  C  2  X    0.123437  -0.116986   0.226115   0.009972  -0.225861
   19  C  2  Y   -0.087464  -0.027370  -0.035228   0.196073  -0.360902
   20  C  2  Z   -0.000000  -0.000000  -0.000000   0.000000   0.000000
   21  C  2  S   -1.389814  -1.849449   3.642631  -0.261851   1.199601
   22  C  2  X    1.068396  -1.287880   2.419183   1.763340   1.155098
   23  C  2  Y   -0.871046   0.751950   0.024666   2.929421   0.335761
   24  C  2  Z   -0.000000  -0.000000  -0.000000   0.000000   0.000000
   25  C  2 XX   -0.010600  -0.001222   0.021346  -0.026771  -0.104639
   26  C  2 YY    0.016518   0.010747   0.009276   0.027751  -0.063190
   27  C  2 ZZ   -0.000531   0.006076  -0.005174  -0.008209   0.047900
   28  C  2 XY    0.015307  -0.031058  -0.007189   0.015346  -0.061201
   29  C  2 XZ   -0.000000  -0.000000  -0.000000   0.000000   0.000000
   30  C  2 YZ   -0.000000  -0.000000  -0.000000   0.000000   0.000000
   31  C  3  S   -0.010678   0.025412   0.058172  -0.076970   0.035272
   32  C  3  S    0.047042   0.021933   0.030541   0.034749  -0.376160
   33  C  3  X   -0.036091   0.039853   0.056456  -0.153500  -0.058111
   34  C  3  Y    0.147913   0.115709  -0.047950   0.384699  -0.171911
   35  C  3  Z   -0.000000  -0.000000  -0.000000   0.000000   0.000000
   36  C  3  S   -0.267613  -0.942103  -1.462522   2.712676   0.744417
   37  C  3  X   -0.537356   1.982810  -0.205692  -1.339048  -0.494012
   38  C  3  Y    0.167261   1.713797  -0.278253   1.783121  -0.660897
   39  C  3  Z   -0.000000  -0.000000  -0.000000   0.000000   0.000000
   40  C  3 XX    0.001895  -0.000964   0.010856   0.009519  -0.032702
   41  C  3 YY   -0.005783   0.001755   0.006276  -0.012584   0.012492
   42  C  3 ZZ    0.005188  -0.011793  -0.005667   0.015738  -0.020382
   43  C  3 XY    0.006404  -0.000987   0.016374   0.014541   0.072239
   44  C  3 XZ   -0.000000  -0.000000  -0.000000   0.000000   0.000000
   45  C  3 YZ   -0.000000  -0.000000  -0.000000   0.000000   0.000000
   46  O  4  S    0.009319  -0.103811  -0.034246   0.036153   0.016163
   47  O  4  S   -0.005524   0.032423   0.110300   0.037783   0.068096
   48  O  4  X    0.041486   0.123835   0.051749  -0.012122  -0.003028
   49  O  4  Y   -0.061771   0.000141   0.118709  -0.070391   0.205822
   50  O  4  Z   -0.000000  -0.000000  -0.000000   0.000000   0.000000
   51  O  4  S   -0.223402   2.356339   0.281942  -1.029978  -0.794037
   52  O  4  X    0.008519   0.873585   0.187687  -0.202145  -0.306618
   53  O  4  Y   -0.134071   0.282868   0.239749  -0.579332  -0.030138
   54  O  4  Z   -0.000000  -0.000000  -0.000000   0.000000   0.000000
   55  O  4 XX   -0.000830  -0.013564   0.024075   0.010112   0.019160
   56  O  4 YY    0.005299  -0.055414   0.005980   0.024714   0.003276
   57  O  4 ZZ    0.004496  -0.075237   0.002351   0.052753   0.046178
   58  O  4 XY   -0.003324   0.036829   0.006797  -0.002106  -0.033444
   59  O  4 XZ   -0.000000  -0.000000  -0.000000   0.000000   0.000000
   60  O  4 YZ   -0.000000  -0.000000  -0.000000   0.000000   0.000000
   61  H  5  S   -0.000230   0.070435  -0.038637  -0.195935  -0.002164
   62  H  5  S   -1.625236  -0.188058  -0.805519   0.415597  -0.196463
   63  H  6  S   -0.012080  -0.033793  -0.145551   0.089408   0.018353
   64  H  6  S    0.998971  -0.511326  -0.079815  -1.233623   0.176398
   65  H  7  S   -0.020022   0.096310   0.042636  -0.052020  -0.139093
   66  H  7  S    1.910132  -0.706679   0.832196  -0.012958   0.200296
   67  H  8  S   -0.033380   0.047917   0.030310  -0.058846  -0.250783
   68  H  8  S    0.496793  -0.002675   0.452797   1.186797  -0.012496

                     26         27         28         29         30
                    0.7281     0.7531     0.8095     0.8260     0.8790
                     A''        A'         A''        A'         A'' 
    1  C  1  S   -0.000000  -0.000480   0.000000  -0.037788   0.000000
    2  C  1  S   -0.000000  -0.270243   0.000000  -0.420507   0.000000
    3  C  1  X   -0.000000  -0.147383   0.000000  -0.071575   0.000000
    4  C  1  Y   -0.000000   0.253392   0.000000  -0.240927   0.000000
    5  C  1  Z    0.621195   0.000000   0.712774   0.000000   0.566911
    6  C  1  S   -0.000000   0.233921   0.000000   1.192156   0.000000
    7  C  1  X   -0.000000   0.846655   0.000000   0.127161   0.000000
    8  C  1  Y   -0.000000  -0.489382   0.000000   0.578770   0.000000
    9  C  1  Z   -0.545608   0.000000  -0.675941   0.000000  -0.917948
   10  C  1 XX   -0.000000  -0.048518   0.000000  -0.049354   0.000000
   11  C  1 YY   -0.000000  -0.013073   0.000000  -0.129415   0.000000
   12  C  1 ZZ   -0.000000   0.004173   0.000000   0.043559   0.000000
   13  C  1 XY   -0.000000   0.055136   0.000000  -0.006744   0.000000
   14  C  1 XZ   -0.037601   0.000000  -0.025585   0.000000   0.030315
   15  C  1 YZ   -0.009144   0.000000  -0.032425   0.000000   0.030794
   16  C  2  S   -0.000000   0.002015   0.000000  -0.026001   0.000000
   17  C  2  S   -0.000000  -0.451648   0.000000  -0.364629   0.000000
   18  C  2  X   -0.000000   0.005934   0.000000   0.007909   0.000000
   19  C  2  Y   -0.000000   0.512325   0.000000  -0.235026   0.000000
   20  C  2  Z    0.459237   0.000000   0.221203   0.000000  -0.978239
   21  C  2  S   -0.000000   0.077013   0.000000   0.299325   0.000000
   22  C  2  X   -0.000000   0.243109   0.000000  -0.472589   0.000000
   23  C  2  Y   -0.000000   0.296679   0.000000   0.196341   0.000000
   24  C  2  Z   -0.255605   0.000000  -0.388945   0.000000   1.453262
   25  C  2 XX   -0.000000  -0.031071   0.000000  -0.044541   0.000000
   26  C  2 YY   -0.000000  -0.110667   0.000000  -0.112719   0.000000
   27  C  2 ZZ   -0.000000   0.008150   0.000000   0.039264   0.000000
   28  C  2 XY   -0.000000  -0.026325   0.000000   0.082099   0.000000
   29  C  2 XZ    0.043504   0.000000   0.059308   0.000000  -0.003010
   30  C  2 YZ   -0.012435   0.000000   0.035282   0.000000   0.033853
   31  C  3  S   -0.000000  -0.053225   0.000000   0.025382   0.000000
   32  C  3  S   -0.000000  -0.531013   0.000000  -0.018574   0.000000
   33  C  3  X   -0.000000  -0.093547   0.000000   0.122187   0.000000
   34  C  3  Y   -0.000000  -0.291374   0.000000  -0.380513   0.000000
   35  C  3  Z    0.722404   0.000000  -0.758338   0.000000   0.192392
   36  C  3  S   -0.000000   1.543736   0.000000  -0.513996   0.000000
   37  C  3  X   -0.000000  -0.207523   0.000000   0.020754   0.000000
   38  C  3  Y   -0.000000   1.030895   0.000000   0.859666   0.000000
   39  C  3  Z   -0.692634   0.000000   1.033946   0.000000  -0.559706
   40  C  3 XX   -0.000000  -0.043148   0.000000   0.004634   0.000000
   41  C  3 YY   -0.000000  -0.151392   0.000000   0.044082   0.000000
   42  C  3 ZZ   -0.000000   0.028747   0.000000  -0.027719   0.000000
   43  C  3 XY   -0.000000   0.035136   0.000000  -0.074277   0.000000
   44  C  3 XZ   -0.011805   0.000000   0.020200   0.000000  -0.025474
   45  C  3 YZ    0.019942   0.000000  -0.013691   0.000000  -0.025386
   46  O  4  S   -0.000000   0.019814   0.000000  -0.012550   0.000000
   47  O  4  S   -0.000000  -0.114173   0.000000   0.036995   0.000000
   48  O  4  X   -0.000000   0.049676   0.000000   0.050007   0.000000
   49  O  4  Y   -0.000000  -0.089326   0.000000  -0.182058   0.000000
   50  O  4  Z    0.012981   0.000000  -0.072409   0.000000  -0.038717
   51  O  4  S   -0.000000  -0.181061   0.000000   0.381654   0.000000
   52  O  4  X   -0.000000  -0.119022   0.000000   0.210390   0.000000
   53  O  4  Y   -0.000000  -0.282084   0.000000   0.049752   0.000000
   54  O  4  Z    0.053983   0.000000  -0.093537   0.000000   0.102808
   55  O  4 XX   -0.000000  -0.024081   0.000000   0.038005   0.000000
   56  O  4 YY   -0.000000  -0.037266   0.000000   0.012569   0.000000
   57  O  4 ZZ   -0.000000   0.002078   0.000000  -0.014658   0.000000
   58  O  4 XY   -0.000000  -0.000118   0.000000   0.005296   0.000000
   59  O  4 XZ    0.051050   0.000000  -0.049841   0.000000   0.010357
   60  O  4 YZ    0.025721   0.000000  -0.036584   0.000000   0.031692
   61  H  5  S   -0.000000   0.094268   0.000000  -0.463161   0.000000
   62  H  5  S   -0.000000   0.020252   0.000000  -0.287629   0.000000
   63  H  6  S   -0.000000  -0.373336   0.000000  -0.142171   0.000000
   64  H  6  S   -0.000000  -0.431336   0.000000  -0.065241   0.000000
   65  H  7  S   -0.000000   0.078053   0.000000  -0.470870   0.000000
   66  H  7  S   -0.000000  -0.190489   0.000000  -0.107723   0.000000
   67  H  8  S   -0.000000  -0.225470   0.000000   0.387890   0.000000
   68  H  8  S   -0.000000   0.156458   0.000000   0.113636   0.000000

                     31         32         33         34         35
                    0.8970     0.9522     1.0428     1.0802     1.1078
                     A'         A'         A'         A'         A'  
    1  C  1  S   -0.088553   0.013500   0.035065   0.002979   0.001120
    2  C  1  S   -0.368712   0.178856  -0.251715   0.134521  -0.259878
    3  C  1  X   -0.433897   0.039419  -0.047930   0.407203   0.260254
    4  C  1  Y   -0.149310  -0.046872   0.042079  -0.802878  -0.517213
    5  C  1  Z   -0.000000  -0.000000   0.000000  -0.000000  -0.000000
    6  C  1  S    1.574711  -0.873831   1.104456  -0.299306   0.713780
    7  C  1  X    0.184862   0.361892  -0.252021  -0.894999  -0.728171
    8  C  1  Y    0.070333   0.097499  -0.057151   2.030105   1.012493
    9  C  1  Z   -0.000000  -0.000000   0.000000  -0.000000  -0.000000
   10  C  1 XX   -0.178784  -0.034479   0.037323  -0.042268  -0.074663
   11  C  1 YY   -0.094494   0.070720   0.013277   0.068661   0.055073
   12  C  1 ZZ    0.082156  -0.000486  -0.059933   0.011553  -0.024074
   13  C  1 XY   -0.025393   0.026035   0.003972   0.061149   0.071090
   14  C  1 XZ   -0.000000  -0.000000   0.000000  -0.000000  -0.000000
   15  C  1 YZ   -0.000000  -0.000000   0.000000  -0.000000  -0.000000
   16  C  2  S    0.065962  -0.005049  -0.028215   0.000981   0.005788
   17  C  2  S   -0.247788   0.303686  -0.406614  -0.345925  -0.176059
   18  C  2  X   -0.419754  -0.060226   0.358679   0.093998   0.189769
   19  C  2  Y   -0.203895  -0.250858   0.102568   0.155567   0.004151
   20  C  2  Z   -0.000000  -0.000000   0.000000  -0.000000  -0.000000
   21  C  2  S    0.328539  -0.729351   1.246656   0.941437   0.075022
   22  C  2  X   -0.149519   0.653585  -1.645263   0.132590  -0.399393
   23  C  2  Y   -0.526726   0.955870  -0.764712  -1.019261  -0.272098
   24  C  2  Z   -0.000000  -0.000000   0.000000  -0.000000  -0.000000
   25  C  2 XX    0.087782   0.061179  -0.093679   0.034575   0.041997
   26  C  2 YY    0.046694  -0.046321  -0.027755  -0.057338  -0.049951
   27  C  2 ZZ   -0.072056   0.029131   0.016970  -0.027743  -0.034533
   28  C  2 XY    0.040481   0.022238   0.063219  -0.066053  -0.097634
   29  C  2 XZ   -0.000000  -0.000000   0.000000  -0.000000  -0.000000
   30  C  2 YZ   -0.000000  -0.000000   0.000000  -0.000000  -0.000000
   31  C  3  S   -0.006613  -0.043017  -0.016100  -0.055922   0.041179
   32  C  3  S    0.202744   0.521718  -0.507082   0.100984  -0.182165
   33  C  3  X   -0.206850  -0.741937  -0.675812   0.214562  -0.227295
   34  C  3  Y    0.368123  -0.604651   0.423354  -0.035807   0.202641
   35  C  3  Z   -0.000000  -0.000000   0.000000  -0.000000  -0.000000
   36  C  3  S   -0.495247   0.818330   0.170406  -1.286751   0.589774
   37  C  3  X    0.694348   0.120076   2.260588   0.060418   0.260013
   38  C  3  Y   -1.233264   1.033660  -1.494807  -0.073666  -0.257206
   39  C  3  Z   -0.000000  -0.000000   0.000000  -0.000000  -0.000000
   40  C  3 XX   -0.008299  -0.082797  -0.103503  -0.151283   0.205723
   41  C  3 YY    0.014383   0.097127  -0.090375  -0.061529  -0.040377
   42  C  3 ZZ    0.008354   0.058900  -0.009743   0.116926  -0.101077
   43  C  3 XY   -0.031979  -0.087171  -0.151540  -0.059694   0.059833
   44  C  3 XZ   -0.000000  -0.000000   0.000000  -0.000000  -0.000000
   45  C  3 YZ   -0.000000  -0.000000   0.000000  -0.000000  -0.000000
   46  O  4  S   -0.000624   0.054744   0.000062   0.003277  -0.012573
   47  O  4  S    0.005338  -0.191485   0.177318   0.248356  -0.350944
   48  O  4  X   -0.131845  -0.209397  -0.278530  -0.343469   0.431224
   49  O  4  Y    0.108226  -0.090845  -0.108073  -0.156961   0.166773
   50  O  4  Z   -0.000000  -0.000000   0.000000  -0.000000  -0.000000
   51  O  4  S    0.121143  -0.119940   0.344919  -0.084726   0.497644
   52  O  4  X   -0.001194  -0.525648   0.311582   0.611248  -0.575232
   53  O  4  Y    0.175873  -0.394889   0.446920   0.315141  -0.331467
   54  O  4  Z   -0.000000  -0.000000   0.000000  -0.000000  -0.000000
   55  O  4 XX    0.008301   0.112891   0.096842   0.171192  -0.261984
   56  O  4 YY    0.023517  -0.059361   0.164990   0.104348  -0.104215
   57  O  4 ZZ   -0.010842  -0.073470   0.033705   0.095405  -0.121696
   58  O  4 XY    0.028797   0.101920   0.101776   0.041108  -0.020551
   59  O  4 XZ   -0.000000  -0.000000   0.000000  -0.000000  -0.000000
   60  O  4 YZ   -0.000000  -0.000000   0.000000  -0.000000  -0.000000
   61  H  5  S   -0.345368   0.180028   0.139267   0.245603   0.311484
   62  H  5  S   -0.142717  -0.168730  -0.187911  -1.278656  -1.003944
   63  H  6  S   -0.468190  -0.079403   0.259436  -0.275331  -0.238305
   64  H  6  S   -0.023857   0.056918  -0.159251   1.386230   0.902264
   65  H  7  S    0.305177   0.064275  -0.220616   0.171400   0.283732
   66  H  7  S   -0.074008   0.193776  -0.416723  -0.106113  -0.514883
   67  H  8  S   -0.120303   0.010696   0.306304  -0.366684   0.524990
   68  H  8  S   -0.632218   0.220913  -1.940963   0.513942  -0.798355

                     36         37         38         39         40
                    1.1254     1.1593     1.1789     1.2910     1.3049
                     A'         A'         A'         A''        A'  
    1  C  1  S   -0.002934   0.009941   0.017523   0.000000   0.023119
    2  C  1  S    0.170598   0.538529  -1.150916   0.000000   0.809575
    3  C  1  X   -0.211468  -0.369674  -0.543177   0.000000  -0.192059
    4  C  1  Y    0.248555  -0.287601  -0.258626   0.000000   0.061050
    5  C  1  Z    0.000000   0.000000  -0.000000  -0.050662  -0.000000
    6  C  1  S    0.191967  -2.399660   2.317753   0.000000  -3.792902
    7  C  1  X    0.644502   1.407226   0.866620   0.000000   1.538069
    8  C  1  Y   -1.377470   0.649853   0.383417   0.000000  -0.094440
    9  C  1  Z    0.000000   0.000000  -0.000000   0.065505  -0.000000
   10  C  1 XX    0.002236  -0.061781  -0.100401   0.000000  -0.048923
   11  C  1 YY    0.055102   0.132699   0.026333   0.000000   0.115843
   12  C  1 ZZ   -0.008709  -0.018560  -0.144951   0.000000   0.053624
   13  C  1 XY    0.046339  -0.074130  -0.112285   0.000000  -0.048800
   14  C  1 XZ    0.000000   0.000000  -0.000000  -0.001070  -0.000000
   15  C  1 YZ    0.000000   0.000000  -0.000000   0.034296  -0.000000
   16  C  2  S    0.036223   0.028963   0.001818   0.000000  -0.040839
   17  C  2  S   -0.400704   0.422648  -0.234079   0.000000  -1.132787
   18  C  2  X    0.730490  -0.561845  -0.053385   0.000000  -0.181809
   19  C  2  Y   -0.749995  -0.341228  -0.047276   0.000000  -0.097872
   20  C  2  Z    0.000000   0.000000  -0.000000   0.025602  -0.000000
   21  C  2  S    0.069318  -1.290143   0.461100   0.000000   4.050597
   22  C  2  X   -1.992897   2.267760   0.151340   0.000000   1.555189
   23  C  2  Y    2.701708   2.266372   0.036525   0.000000   0.814588
   24  C  2  Z    0.000000   0.000000  -0.000000   0.087297  -0.000000
   25  C  2 XX    0.031690   0.170246  -0.003756   0.000000  -0.048766
   26  C  2 YY   -0.061856  -0.070868   0.011659   0.000000  -0.115095
   27  C  2 ZZ   -0.087686  -0.005019  -0.017675   0.000000   0.008192
   28  C  2 XY   -0.090490   0.063837  -0.005319   0.000000   0.076668
   29  C  2 XZ    0.000000   0.000000  -0.000000  -0.041850  -0.000000
   30  C  2 YZ    0.000000   0.000000  -0.000000   0.017213  -0.000000
   31  C  3  S   -0.016065  -0.019762   0.001219   0.000000   0.021233
   32  C  3  S   -0.359352  -1.317754   0.401186   0.000000   0.473101
   33  C  3  X    0.072722  -0.001000   0.171425   0.000000   0.226966
   34  C  3  Y   -0.138679  -0.173362  -0.094452   0.000000  -0.071929
   35  C  3  Z    0.000000   0.000000  -0.000000   0.125364  -0.000000
   36  C  3  S    2.060318   4.198733  -0.936348   0.000000  -1.262633
   37  C  3  X    0.324786  -0.616047  -0.404323   0.000000  -1.221918
   38  C  3  Y    1.078412   1.754058   0.222937   0.000000   0.371767
   39  C  3  Z    0.000000   0.000000  -0.000000  -0.560642  -0.000000
   40  C  3 XX   -0.061644  -0.090737   0.002815   0.000000   0.146789
   41  C  3 YY    0.037254  -0.045741   0.033779   0.000000  -0.072097
   42  C  3 ZZ   -0.005999  -0.049057   0.029182   0.000000   0.009003
   43  C  3 XY    0.080096  -0.025702   0.049057   0.000000  -0.086186
   44  C  3 XZ    0.000000   0.000000  -0.000000   0.040391  -0.000000
   45  C  3 YZ    0.000000   0.000000  -0.000000   0.058887  -0.000000
   46  O  4  S    0.001571   0.002566  -0.000559   0.000000   0.000319
   47  O  4  S   -0.003749   0.224205  -0.027135   0.000000   0.049462
   48  O  4  X   -0.022353   0.030366   0.035328   0.000000  -0.205385
   49  O  4  Y   -0.035477  -0.016435  -0.005633   0.000000   0.520892
   50  O  4  Z    0.000000   0.000000  -0.000000  -0.970426  -0.000000
   51  O  4  S   -0.005883  -0.975524   0.097673   0.000000  -0.235551
   52  O  4  X    0.019358   0.054653  -0.036634   0.000000   0.364404
   53  O  4  Y   -0.058179  -0.197047  -0.016826   0.000000  -0.822964
   54  O  4  Z    0.000000   0.000000  -0.000000   1.247903  -0.000000
   55  O  4 XX   -0.002800   0.034872   0.010942   0.000000  -0.040936
   56  O  4 YY   -0.016340   0.010915  -0.028814   0.000000   0.062347
   57  O  4 ZZ    0.030225   0.166810  -0.023074   0.000000  -0.003725
   58  O  4 XY   -0.021452  -0.026297  -0.013275   0.000000   0.037300
   59  O  4 XZ    0.000000   0.000000  -0.000000  -0.044392  -0.000000
   60  O  4 YZ    0.000000   0.000000  -0.000000  -0.013156  -0.000000
   61  H  5  S   -0.100547   0.244084   0.557611   0.000000   0.295518
   62  H  5  S    0.667938  -0.436190  -1.259731   0.000000   0.421604
   63  H  6  S    0.019152   0.120327   0.622142   0.000000  -0.004417
   64  H  6  S   -0.647672  -0.186047  -1.421568   0.000000  -0.090843
   65  H  7  S    0.532834   0.004209   0.027753   0.000000  -0.197826
   66  H  7  S   -2.390738   0.646671  -0.041703   0.000000  -0.090361
   67  H  8  S   -0.184729   0.185126  -0.237963   0.000000   0.171937
   68  H  8  S    0.158022  -0.122031   0.846644   0.000000   0.778681

                     41         42         43         44         45
                    1.3265     1.3981     1.5261     1.5900     1.7103
                     A'         A'         A'         A''        A'' 
    1  C  1  S    0.000609   0.018618   0.016829  -0.000000  -0.000000
    2  C  1  S   -0.408586   0.803110   0.190486  -0.000000  -0.000000
    3  C  1  X    0.109942  -0.121251   0.103381  -0.000000  -0.000000
    4  C  1  Y    0.343453  -0.045684   0.186468  -0.000000  -0.000000
    5  C  1  Z   -0.000000   0.000000   0.000000   0.134114  -0.111673
    6  C  1  S   -0.507738  -3.130439  -3.289913  -0.000000  -0.000000
    7  C  1  X    0.904400   1.105020   0.055417  -0.000000  -0.000000
    8  C  1  Y   -1.873851   0.060294   2.048049  -0.000000  -0.000000
    9  C  1  Z   -0.000000   0.000000   0.000000  -0.007732  -0.002907
   10  C  1 XX   -0.147126  -0.046907  -0.015717  -0.000000  -0.000000
   11  C  1 YY    0.070600   0.103500  -0.048835  -0.000000  -0.000000
   12  C  1 ZZ    0.006101   0.045178   0.093992  -0.000000  -0.000000
   13  C  1 XY    0.091632  -0.051505  -0.126388  -0.000000  -0.000000
   14  C  1 XZ   -0.000000   0.000000   0.000000   0.360017  -0.252018
   15  C  1 YZ   -0.000000   0.000000   0.000000   0.011141  -0.416017
   16  C  2  S    0.001123  -0.034202  -0.034314  -0.000000  -0.000000
   17  C  2  S    0.224181  -1.016419  -0.767556  -0.000000  -0.000000
   18  C  2  X   -0.022643  -0.215460  -0.270631  -0.000000  -0.000000
   19  C  2  Y   -0.151616  -0.046580   0.188271  -0.000000  -0.000000
   20  C  2  Z   -0.000000   0.000000   0.000000   0.013531  -0.185433
   21  C  2  S   -0.457596   4.795896   3.559806  -0.000000  -0.000000
   22  C  2  X    0.982978   0.640351   3.921242  -0.000000  -0.000000
   23  C  2  Y    1.914272   0.027971  -2.361464  -0.000000  -0.000000
   24  C  2  Z   -0.000000   0.000000   0.000000  -0.036380   0.110220
   25  C  2 XX   -0.013057  -0.066253   0.016397  -0.000000  -0.000000
   26  C  2 YY    0.059481  -0.015808  -0.068555  -0.000000  -0.000000
   27  C  2 ZZ    0.005070  -0.025207   0.037131  -0.000000  -0.000000
   28  C  2 XY   -0.016917   0.075359  -0.102473  -0.000000  -0.000000
   29  C  2 XZ   -0.000000   0.000000   0.000000  -0.192175   0.556390
   30  C  2 YZ   -0.000000   0.000000   0.000000  -0.504519  -0.220848
   31  C  3  S   -0.007835   0.023826   0.026621  -0.000000  -0.000000
   32  C  3  S    0.191353   0.389141   0.322617  -0.000000  -0.000000
   33  C  3  X    0.259982  -0.079794  -0.031612  -0.000000  -0.000000
   34  C  3  Y    0.159363   0.273335  -0.156498  -0.000000  -0.000000
   35  C  3  Z   -0.000000   0.000000   0.000000  -0.038122   0.114345
   36  C  3  S    0.558414  -1.219316  -2.212919  -0.000000  -0.000000
   37  C  3  X   -1.632758   0.556875  -2.404431  -0.000000  -0.000000
   38  C  3  Y    0.547684  -1.946104  -1.060389  -0.000000  -0.000000
   39  C  3  Z   -0.000000   0.000000   0.000000  -0.050332  -0.184640
   40  C  3 XX   -0.017364  -0.036194   0.048663  -0.000000  -0.000000
   41  C  3 YY    0.118842   0.070168  -0.090662  -0.000000  -0.000000
   42  C  3 ZZ   -0.035252  -0.010648   0.060378  -0.000000  -0.000000
   43  C  3 XY   -0.154257   0.076612  -0.033533  -0.000000  -0.000000
   44  C  3 XZ   -0.000000   0.000000   0.000000  -0.049834   0.335228
   45  C  3 YZ   -0.000000   0.000000   0.000000   0.531679   0.165546
   46  O  4  S    0.007386  -0.000733   0.041720  -0.000000  -0.000000
   47  O  4  S   -0.124589   0.121271   0.330212  -0.000000  -0.000000
   48  O  4  X   -0.232499   0.428568  -0.043077  -0.000000  -0.000000
   49  O  4  Y   -0.316732  -0.478737  -0.252965  -0.000000  -0.000000
   50  O  4  Z   -0.000000   0.000000   0.000000   0.072368   0.042140
   51  O  4  S   -0.407781  -0.153532  -1.792361  -0.000000  -0.000000
   52  O  4  X    0.438422  -0.772894  -0.245532  -0.000000  -0.000000
   53  O  4  Y    0.242935   1.021979   0.089642  -0.000000  -0.000000
   54  O  4  Z   -0.000000   0.000000   0.000000   0.041940   0.155427
   55  O  4 XX   -0.047760   0.112539   0.122386  -0.000000  -0.000000
   56  O  4 YY   -0.008504  -0.028616   0.095510  -0.000000  -0.000000
   57  O  4 ZZ    0.036357  -0.022745   0.160162  -0.000000  -0.000000
   58  O  4 XY   -0.012562  -0.050064   0.058925  -0.000000  -0.000000
   59  O  4 XZ   -0.000000   0.000000   0.000000  -0.190221  -0.203577
   60  O  4 YZ   -0.000000   0.000000   0.000000   0.080899  -0.114539
   61  H  5  S    0.515477   0.254313  -0.367019  -0.000000  -0.000000
   62  H  5  S    0.569520   0.323142  -0.220803  -0.000000  -0.000000
   63  H  6  S   -0.434796  -0.114397   0.571685  -0.000000  -0.000000
   64  H  6  S   -0.586190   0.203770   0.671513  -0.000000  -0.000000
   65  H  7  S    0.024038  -0.295539   0.852149  -0.000000  -0.000000
   66  H  7  S   -0.045918  -0.279815   1.315999  -0.000000  -0.000000
   67  H  8  S    0.526467  -0.141682   0.573141  -0.000000  -0.000000
   68  H  8  S    0.407609  -0.544115   0.701626  -0.000000  -0.000000

                     46         47         48         49         50
                    1.8107     1.8270     1.9365     2.0382     2.0895
                     A'         A''        A''        A'         A'  
    1  C  1  S    0.014996  -0.000000   0.000000   0.006926   0.002880
    2  C  1  S    0.302728  -0.000000   0.000000   0.044699   0.006117
    3  C  1  X    0.015151  -0.000000   0.000000  -0.087793  -0.020988
    4  C  1  Y   -0.140251  -0.000000   0.000000  -0.043473   0.139405
    5  C  1  Z    0.000000   0.076541  -0.039869   0.000000  -0.000000
    6  C  1  S   -0.892703  -0.000000   0.000000   0.951644  -0.138425
    7  C  1  X    0.130895  -0.000000   0.000000  -0.481948   0.018433
    8  C  1  Y    1.453600  -0.000000   0.000000  -0.068740   0.137407
    9  C  1  Z    0.000000  -0.087697   0.086943   0.000000  -0.000000
   10  C  1 XX    0.101491  -0.000000   0.000000  -0.058094  -0.140276
   11  C  1 YY    0.047250  -0.000000   0.000000  -0.126520   0.120207
   12  C  1 ZZ   -0.149472  -0.000000   0.000000   0.210501  -0.020593
   13  C  1 XY   -0.085540  -0.000000   0.000000   0.096286   0.218741
   14  C  1 XZ    0.000000   0.107538  -0.546220   0.000000  -0.000000
   15  C  1 YZ    0.000000   0.348537   0.660489   0.000000  -0.000000
   16  C  2  S   -0.025445  -0.000000   0.000000   0.003185  -0.016083
   17  C  2  S   -0.523027  -0.000000   0.000000   0.128672   0.268037
   18  C  2  X   -0.083455  -0.000000   0.000000   0.078051  -0.118183
   19  C  2  Y    0.074719  -0.000000   0.000000  -0.140878  -0.247584
   20  C  2  Z    0.000000   0.037617  -0.044178   0.000000  -0.000000
   21  C  2  S    2.132475  -0.000000   0.000000  -0.027608   0.321727
   22  C  2  X    0.185728  -0.000000   0.000000  -1.435930  -0.021339
   23  C  2  Y   -1.024261  -0.000000   0.000000  -0.517651   0.229749
   24  C  2  Z    0.000000   0.098590  -0.192082   0.000000  -0.000000
   25  C  2 XX    0.032982  -0.000000   0.000000  -0.026105   0.301219
   26  C  2 YY    0.051512  -0.000000   0.000000  -0.245616  -0.370902
   27  C  2 ZZ   -0.112754  -0.000000   0.000000   0.353874   0.089884
   28  C  2 XY    0.063140  -0.000000   0.000000   0.067715  -0.071491
   29  C  2 XZ    0.000000  -0.225745   0.125826   0.000000  -0.000000
   30  C  2 YZ    0.000000   0.083710   0.061834   0.000000  -0.000000
   31  C  3  S   -0.024629  -0.000000   0.000000   0.019720  -0.014475
   32  C  3  S   -0.144788  -0.000000   0.000000   0.314838   0.187377
   33  C  3  X   -0.048777  -0.000000   0.000000  -0.014710   0.103289
   34  C  3  Y    0.005191  -0.000000   0.000000   0.281094   0.063679
   35  C  3  Z    0.000000   0.166177  -0.020608   0.000000  -0.000000
   36  C  3  S   -3.698175  -0.000000   0.000000  -2.309954  -0.285254
   37  C  3  X    2.576233  -0.000000   0.000000   1.755386   0.688555
   38  C  3  Y    0.330797  -0.000000   0.000000  -0.331096  -0.621860
   39  C  3  Z    0.000000  -0.112240   0.185095   0.000000  -0.000000
   40  C  3 XX   -0.139938  -0.000000   0.000000  -0.168303   0.369623
   41  C  3 YY    0.152710  -0.000000   0.000000  -0.256844  -0.310113
   42  C  3 ZZ   -0.057119  -0.000000   0.000000   0.513963  -0.001295
   43  C  3 XY   -0.198160  -0.000000   0.000000   0.089045  -0.250500
   44  C  3 XZ    0.000000   0.619362  -0.063441   0.000000  -0.000000
   45  C  3 YZ    0.000000  -0.136509   0.330404   0.000000  -0.000000
   46  O  4  S   -0.107077  -0.000000   0.000000  -0.046880  -0.009255
   47  O  4  S   -1.711058  -0.000000   0.000000  -0.726784  -0.190937
   48  O  4  X   -0.218005  -0.000000   0.000000   0.002969   0.095159
   49  O  4  Y   -0.107121  -0.000000   0.000000  -0.021480  -0.259981
   50  O  4  Z    0.000000   0.136927   0.060080   0.000000  -0.000000
   51  O  4  S    5.751660  -0.000000   0.000000   2.818267   0.620800
   52  O  4  X    1.548933  -0.000000   0.000000   0.632569  -0.049044
   53  O  4  Y    1.027640  -0.000000   0.000000   0.568292   0.497076
   54  O  4  Z    0.000000   0.046421  -0.085739   0.000000  -0.000000
   55  O  4 XX   -0.402543  -0.000000   0.000000  -0.292260  -0.355320
   56  O  4 YY   -0.332929  -0.000000   0.000000  -0.600420   0.449959
   57  O  4 ZZ   -0.537038  -0.000000   0.000000   0.431534  -0.216442
   58  O  4 XY   -0.230608  -0.000000   0.000000   0.162874   0.156889
   59  O  4 XZ    0.000000  -0.219240  -0.213446   0.000000  -0.000000
   60  O  4 YZ    0.000000  -0.419923   0.254955   0.000000  -0.000000
   61  H  5  S   -0.222160  -0.000000   0.000000   0.027373  -0.203747
   62  H  5  S   -0.514752  -0.000000   0.000000  -0.012525  -0.000426
   63  H  6  S    0.190924  -0.000000   0.000000   0.159655   0.279639
   64  H  6  S    0.245277  -0.000000   0.000000   0.033556  -0.078851
   65  H  7  S    0.027270  -0.000000   0.000000  -0.109289  -0.193182
   66  H  7  S    0.068583  -0.000000   0.000000  -0.308890   0.016862
   67  H  8  S   -0.115823  -0.000000   0.000000   0.086610  -0.550122
   68  H  8  S   -0.346546  -0.000000   0.000000  -0.394755  -0.145352

                     51         52         53         54         55
                    2.1461     2.2055     2.2964     2.3625     2.4433
                     A''        A'         A'         A'         A'' 
    1  C  1  S   -0.000000   0.025481  -0.018260   0.013827  -0.000000
    2  C  1  S   -0.000000   0.058447  -0.222724   0.267004  -0.000000
    3  C  1  X   -0.000000   0.032052   0.290503  -0.139641  -0.000000
    4  C  1  Y   -0.000000  -0.107281   0.021062  -0.216989  -0.000000
    5  C  1  Z   -0.008823   0.000000  -0.000000   0.000000   0.024819
    6  C  1  S   -0.000000  -0.630254  -0.239739   0.187668  -0.000000
    7  C  1  X   -0.000000   0.071879  -0.166133   0.199781  -0.000000
    8  C  1  Y   -0.000000  -0.250526   0.278146   0.052675  -0.000000
    9  C  1  Z    0.039773   0.000000  -0.000000   0.000000   0.201093
   10  C  1 XX   -0.000000   0.089776   0.405316   0.044595  -0.000000
   11  C  1 YY   -0.000000  -0.546616  -0.183236  -0.005506  -0.000000
   12  C  1 ZZ   -0.000000   0.484727  -0.383162   0.121354  -0.000000
   13  C  1 XY   -0.000000   0.066148  -0.038402  -0.647142  -0.000000
   14  C  1 XZ    0.160110   0.000000  -0.000000   0.000000  -0.352969
   15  C  1 YZ   -0.288612   0.000000  -0.000000   0.000000  -0.374378
   16  C  2  S   -0.000000   0.031298  -0.033063   0.002751  -0.000000
   17  C  2  S   -0.000000   0.224694  -0.430781   0.271345  -0.000000
   18  C  2  X   -0.000000   0.082605  -0.073412   0.212209  -0.000000
   19  C  2  Y   -0.000000  -0.106019  -0.084891  -0.149313  -0.000000
   20  C  2  Z    0.059329   0.000000  -0.000000   0.000000  -0.088241
   21  C  2  S   -0.000000  -1.115416   1.397893   0.324589  -0.000000
   22  C  2  X   -0.000000   0.538559   0.726624  -0.780136  -0.000000
   23  C  2  Y   -0.000000   0.712386  -0.774174  -0.513219  -0.000000
   24  C  2  Z   -0.137911   0.000000  -0.000000   0.000000  -0.376703
   25  C  2 XX   -0.000000  -0.292866   0.063498  -0.477574  -0.000000
   26  C  2 YY   -0.000000  -0.167002   0.079619   0.409297  -0.000000
   27  C  2 ZZ   -0.000000   0.451376  -0.251503   0.214269  -0.000000
   28  C  2 XY   -0.000000   0.437047   0.476001  -0.165964  -0.000000
   29  C  2 XZ   -0.171756   0.000000  -0.000000   0.000000  -0.462112
   30  C  2 YZ    0.444374   0.000000  -0.000000   0.000000   0.460757
   31  C  3  S   -0.000000   0.005542   0.010448   0.007017  -0.000000
   32  C  3  S   -0.000000  -0.247688   0.070363  -0.080838  -0.000000
   33  C  3  X   -0.000000   0.089343   0.122199  -0.061710  -0.000000
   34  C  3  Y   -0.000000   0.005156  -0.142781  -0.294216  -0.000000
   35  C  3  Z    0.110098   0.000000  -0.000000   0.000000   0.102536
   36  C  3  S   -0.000000   1.149213  -0.781785  -0.711891  -0.000000
   37  C  3  X   -0.000000  -0.093411  -0.090753   0.850887  -0.000000
   38  C  3  Y   -0.000000   0.688947  -0.791090  -0.550923  -0.000000
   39  C  3  Z    0.110646   0.000000  -0.000000   0.000000   0.317115
   40  C  3 XX   -0.000000  -0.105761   0.183150   0.161474  -0.000000
   41  C  3 YY   -0.000000   0.118725   0.054523  -0.151261  -0.000000
   42  C  3 ZZ   -0.000000   0.101819  -0.299367  -0.038085  -0.000000
   43  C  3 XY   -0.000000  -0.243631  -0.354993   0.057404  -0.000000
   44  C  3 XZ    0.168763   0.000000  -0.000000   0.000000  -0.302531
   45  C  3 YZ   -0.059435   0.000000  -0.000000   0.000000   0.540123
   46  O  4  S   -0.000000   0.002239  -0.003376  -0.005734  -0.000000
   47  O  4  S   -0.000000   0.141977   0.144196  -0.301531  -0.000000
   48  O  4  X   -0.000000   0.196778   0.138269  -0.079372  -0.000000
   49  O  4  Y   -0.000000   0.085427  -0.045085  -0.170416  -0.000000
   50  O  4  Z    0.057841   0.000000  -0.000000   0.000000   0.071249
   51  O  4  S   -0.000000  -0.215270  -0.237337   0.824335  -0.000000
   52  O  4  X   -0.000000  -0.115800  -0.183889   0.093293  -0.000000
   53  O  4  Y   -0.000000  -0.125702   0.184357   0.411816  -0.000000
   54  O  4  Z   -0.076310   0.000000  -0.000000   0.000000  -0.204419
   55  O  4 XX   -0.000000   0.088550  -0.175689  -0.436335  -0.000000
   56  O  4 YY   -0.000000   0.286985  -0.222430   0.239915  -0.000000
   57  O  4 ZZ   -0.000000  -0.240916   0.446048   0.055534  -0.000000
   58  O  4 XY   -0.000000  -0.209934   0.322429   0.284589  -0.000000
   59  O  4 XZ   -0.562404   0.000000  -0.000000   0.000000  -0.089254
   60  O  4 YZ    0.596623   0.000000  -0.000000   0.000000  -0.493300
   61  H  5  S   -0.000000   0.518824   0.102406   0.129457  -0.000000
   62  H  5  S   -0.000000   0.036820  -0.152383  -0.046435  -0.000000
   63  H  6  S   -0.000000   0.089039  -0.195424  -0.432281  -0.000000
   64  H  6  S   -0.000000  -0.030015   0.191499   0.127908  -0.000000
   65  H  7  S   -0.000000   0.602316   0.335506   0.033285  -0.000000
   66  H  7  S   -0.000000   0.019521   0.173499  -0.154256  -0.000000
   67  H  8  S   -0.000000  -0.144455  -0.361368  -0.193011  -0.000000
   68  H  8  S   -0.000000   0.114233  -0.006057  -0.337570  -0.000000

                     56         57         58         59         60
[...]
                    2.9595     3.2167     3.2971     3.3753     4.2703
                     A'         A'         A'         A'         A'  
    1  C  1  S    0.065621  -0.010972   0.028659  -0.002251  -0.020532
    2  C  1  S   -0.191398   0.040227  -0.110196   0.171590   0.263946
    3  C  1  X    0.526196  -0.161113   0.361584  -0.302068   0.050893
    4  C  1  Y    0.281034   0.038043   0.164656  -0.135002  -0.024344
    5  C  1  Z   -0.000000   0.000000   0.000000  -0.000000  -0.000000
    6  C  1  S   -2.126375   0.316195  -1.223105   0.410699   0.190811
    7  C  1  X    1.014919   0.095457   0.553093  -0.283297   0.008672
    8  C  1  Y    0.421513  -0.519907   0.418355   0.105877   0.355446
    9  C  1  Z   -0.000000   0.000000   0.000000  -0.000000  -0.000000
   10  C  1 XX   -0.395071   0.571578  -0.317664   0.366506  -0.213046
   11  C  1 YY   -0.095566  -0.490036   0.070374  -0.204893  -0.118403
   12  C  1 ZZ    0.554864  -0.086699   0.198099  -0.047271  -0.066807
   13  C  1 XY   -0.789241  -0.354653  -0.340745   0.139067  -0.047485
   14  C  1 XZ   -0.000000   0.000000   0.000000  -0.000000  -0.000000
   15  C  1 YZ   -0.000000   0.000000   0.000000  -0.000000  -0.000000
   16  C  2  S   -0.079507   0.065868  -0.025520   0.003062   0.065099
   17  C  2  S    0.176558  -0.110690  -0.014267  -0.117632  -0.485218
   18  C  2  X    0.535843  -0.034657   0.236854  -0.194309   0.069016
   19  C  2  Y    0.084650   0.160934   0.284919  -0.220972   0.030296
   20  C  2  Z   -0.000000   0.000000   0.000000  -0.000000  -0.000000
   21  C  2  S    2.437366  -1.509658   1.368499  -0.164906   0.404537
   22  C  2  X    1.158437  -0.104516   0.683599  -0.347501  -0.467634
   23  C  2  Y    0.179578   0.908119   0.195827  -0.512458  -0.263385
   24  C  2  Z   -0.000000   0.000000   0.000000  -0.000000  -0.000000
   25  C  2 XX    0.757759   0.562755   0.503942  -0.281930   0.315118
   26  C  2 YY   -0.040237  -0.728910  -0.385461   0.282630   0.220075
   27  C  2 ZZ   -0.669722   0.333571  -0.160883   0.044943   0.290541
   28  C  2 XY    0.246764  -0.709491   0.450071  -0.569956   0.079205
   29  C  2 XZ   -0.000000   0.000000   0.000000  -0.000000  -0.000000
   30  C  2 YZ   -0.000000   0.000000   0.000000  -0.000000  -0.000000
   31  C  3  S    0.045275  -0.028435  -0.059759   0.007822   0.116295
   32  C  3  S    0.094955   0.339545  -0.707487  -1.105807  -1.030749
   33  C  3  X   -0.104171  -0.150621   0.817137   0.822950  -0.075592
   34  C  3  Y   -0.029984   0.216703   0.452593   0.461398  -0.012134
   35  C  3  Z   -0.000000   0.000000   0.000000  -0.000000  -0.000000
   36  C  3  S   -0.697538   1.697595  -0.977807  -1.638132  -2.758914
   37  C  3  X   -0.347846  -0.287784   0.710703   0.621646   1.795591
   38  C  3  Y   -0.180004   0.629413   0.021958   0.239251   0.339307
   39  C  3  Z   -0.000000   0.000000   0.000000  -0.000000  -0.000000
   40  C  3 XX    0.342286  -0.444675  -0.818601  -0.062253   0.573005
   41  C  3 YY   -0.377793   0.700566   0.467466  -0.187394   0.556560
   42  C  3 ZZ    0.254124  -0.282104   0.113524   0.447231   0.610943
   43  C  3 XY   -0.317401  -0.118158   0.203326  -0.938554   0.086682
   44  C  3 XZ   -0.000000   0.000000   0.000000  -0.000000  -0.000000
   45  C  3 YZ   -0.000000   0.000000   0.000000  -0.000000  -0.000000
   46  O  4  S   -0.001350   0.014950  -0.020339  -0.024185  -0.517603
   47  O  4  S    0.103330   0.415845  -0.633405  -0.411280  -0.342687
   48  O  4  X    0.069766   0.115173   0.106271   0.331807  -0.267590
   49  O  4  Y   -0.000174   0.118794   0.078795   0.149256  -0.156530
   50  O  4  Z   -0.000000   0.000000   0.000000  -0.000000  -0.000000
   51  O  4  S   -0.179745  -1.040009   2.125938   2.119130   6.196237
   52  O  4  X   -0.050969  -0.450667   0.952060   1.203826   1.121296
   53  O  4  Y   -0.153155  -0.325740   0.898492   0.444154   0.761647
   54  O  4  Z   -0.000000   0.000000   0.000000  -0.000000  -0.000000
   55  O  4 XX    0.224110  -0.250847   0.277855   1.077154  -1.632067
   56  O  4 YY   -0.248537   0.150909   0.328847  -0.389235  -1.680424
   57  O  4 ZZ    0.027065   0.233618  -0.441472  -0.398893  -1.762569
   58  O  4 XY   -0.335808  -0.064101   0.977485   0.572147   0.167922
   59  O  4 XZ   -0.000000   0.000000   0.000000  -0.000000  -0.000000
   60  O  4 YZ   -0.000000   0.000000   0.000000  -0.000000  -0.000000
   61  H  5  S    0.215743   0.313320   0.004734   0.066364  -0.027835
   62  H  5  S   -0.052790   0.041599  -0.098186  -0.088734  -0.205978
   63  H  6  S   -0.109254  -0.320945   0.007199   0.023585   0.083454
   64  H  6  S    0.001288  -0.104315   0.024114   0.053624  -0.021011
   65  H  7  S   -0.215545  -0.333908   0.032792  -0.150511  -0.056212
   66  H  7  S    0.225258   0.064305   0.066987   0.110754  -0.123549
   67  H  8  S   -0.085805  -0.010771   0.226670  -0.177633  -0.053584
   68  H  8  S    0.269349   0.049915  -0.253662   0.141107  -0.171241

                     66         67         68
                    4.4739     4.5660     4.7937
                     A'         A'         A'  
    1  C  1  S   -0.267199   0.357589   0.148993
    2  C  1  S    1.957943  -2.112928  -0.916130
    3  C  1  X   -0.082086  -0.168586  -0.258825
    4  C  1  Y   -0.067652  -0.129360  -0.096206
    5  C  1  Z   -0.000000   0.000000   0.000000
    6  C  1  S    0.534026  -1.614750  -1.201800
    7  C  1  X    0.113760   0.047686   0.166178
    8  C  1  Y    0.354980   0.370020   0.022197
    9  C  1  Z   -0.000000   0.000000   0.000000
   10  C  1 XX   -1.059044   1.498758   0.888233
   11  C  1 YY   -1.107642   1.369114   0.635868
   12  C  1 ZZ   -1.036451   1.368926   0.517347
   13  C  1 XY    0.012642   0.109463   0.131615
   14  C  1 XZ   -0.000000   0.000000   0.000000
   15  C  1 YZ   -0.000000   0.000000   0.000000
   16  C  2  S   -0.297046  -0.087250  -0.358375
   17  C  2  S    1.905482   0.361134   2.213161
   18  C  2  X    0.072620  -0.226947  -0.217288
   19  C  2  Y   -0.002419  -0.210506   0.082757
   20  C  2  Z   -0.000000   0.000000   0.000000
   21  C  2  S    1.074849   0.862899   2.074446
   22  C  2  X   -0.023152  -0.054910   0.271910
   23  C  2  Y   -0.234337  -0.038790  -0.110653
   24  C  2  Z   -0.000000   0.000000   0.000000
   25  C  2 XX   -1.109925  -0.543711  -1.583756
   26  C  2 YY   -1.022380  -0.142830  -1.728775
   27  C  2 ZZ   -1.152557  -0.297107  -1.330433
   28  C  2 XY    0.014044  -0.107849  -0.170637
   29  C  2 XZ   -0.000000   0.000000   0.000000
   30  C  2 YZ   -0.000000   0.000000   0.000000
   31  C  3  S   -0.221515  -0.299903   0.273716
   32  C  3  S    1.358853   1.674666  -1.618490
   33  C  3  X    0.136251   0.157603  -0.168849
   34  C  3  Y    0.128808   0.072385   0.071498
   35  C  3  Z   -0.000000   0.000000   0.000000
   36  C  3  S   -0.580920  -0.355041  -0.920442
   37  C  3  X    0.568389   1.091247  -0.499426
   38  C  3  Y    0.026854   0.213131  -0.369124
   39  C  3  Z   -0.000000   0.000000   0.000000
   40  C  3 XX   -0.990395  -1.261107   1.166569
   41  C  3 YY   -0.768766  -1.165124   1.416789
   42  C  3 ZZ   -0.771255  -1.031834   0.937275
   43  C  3 XY   -0.126490  -0.154168   0.167724
   44  C  3 XZ   -0.000000   0.000000   0.000000
   45  C  3 YZ   -0.000000   0.000000   0.000000
   46  O  4  S   -0.118781  -0.169969   0.035772
   47  O  4  S   -0.056582  -0.162289   0.064307
   48  O  4  X    0.082855   0.092233  -0.135598
   49  O  4  Y    0.047719   0.043874  -0.063826
   50  O  4  Z   -0.000000   0.000000   0.000000
   51  O  4  S    1.673302   2.560901  -0.786422
   52  O  4  X    0.477379   0.701384  -0.382312
   53  O  4  Y    0.283957   0.435856  -0.169126
   54  O  4  Z   -0.000000   0.000000   0.000000
   55  O  4 XX   -0.207157  -0.306366  -0.132956
   56  O  4 YY   -0.378308  -0.525226   0.084730
   57  O  4 ZZ   -0.421593  -0.616441   0.198339
   58  O  4 XY    0.143699   0.190830  -0.118087
   59  O  4 XZ   -0.000000   0.000000   0.000000
   60  O  4 YZ   -0.000000   0.000000   0.000000
   61  H  5  S    0.096535  -0.139086  -0.033912
   62  H  5  S   -0.369209   0.171508   0.206444
   63  H  6  S    0.158534  -0.044540  -0.067446
   64  H  6  S   -0.169041   0.401957   0.166119
   65  H  7  S    0.115114   0.007991   0.108126
   66  H  7  S   -0.212796  -0.148622  -0.275502
   67  H  8  S    0.085991   0.060860  -0.050865
   68  H  8  S   -0.214857  -0.437019   0.301275
 ...... END OF RHF CALCULATION ......
 STEP CPU TIME =     0.30 TOTAL CPU TIME =          0.4 (      0.0 MIN)
 TOTAL WALL CLOCK TIME=          0.4 SECONDS, CPU UTILIZATION IS    99.06%

     ----------------------------------------------------------------
     PROPERTY VALUES FOR THE RHF   SELF-CONSISTENT FIELD WAVEFUNCTION
     ----------------------------------------------------------------

          -----------------
          ENERGY COMPONENTS
          -----------------

         WAVEFUNCTION NORMALIZATION =       1.0000000000

                ONE ELECTRON ENERGY =    -462.0895836204
                TWO ELECTRON ENERGY =     168.6404840076
           NUCLEAR REPULSION ENERGY =     102.6894631254
                                      ------------------
                       TOTAL ENERGY =    -190.7596364875

 ELECTRON-ELECTRON POTENTIAL ENERGY =     168.6404840076
  NUCLEUS-ELECTRON POTENTIAL ENERGY =    -652.2849967054
   NUCLEUS-NUCLEUS POTENTIAL ENERGY =     102.6894631254
                                      ------------------
             TOTAL POTENTIAL ENERGY =    -380.9550495724
               TOTAL KINETIC ENERGY =     190.1954130850
                 VIRIAL RATIO (V/T) =       2.0029665458

  ...... PI ENERGY ANALYSIS ......

 ENERGY ANALYSIS:
            FOCK ENERGY=   -124.8086193393
          BARE H ENERGY=   -462.0895836204
     ELECTRONIC ENERGY =   -293.4491014798
         KINETIC ENERGY=    190.1954130850
          N-N REPULSION=    102.6894631254
           TOTAL ENERGY=   -190.7596383544
        SIGMA PART(1+2)=   -271.4100890939
               (K,V1,2)=    184.6997904499   -604.5756118112    148.4657322674
           PI PART(1+2)=    -22.0390123859
               (K,V1,2)=      5.4956226351    -47.7093848943     20.1747498732
  SIGMA SKELETON, ERROR=   -168.7206259685      0.0000000000
             MIXED PART= 0.00000E+00 0.00000E+00 0.00000E+00 0.00000E+00
 ...... END OF PI ENERGY ANALYSIS ......

          ---------------------------------------
          MULLIKEN AND LOWDIN POPULATION ANALYSES
          ---------------------------------------

     ATOMIC MULLIKEN POPULATION IN EACH MOLECULAR ORBITAL

                      1          2          3          4          5

                  2.000000   2.000000   2.000000   2.000000   2.000000

    1            -0.000000   0.000029   1.993552   0.005797   0.000262
    2            -0.000002   0.000570   0.005640   1.993048   0.029176
    3            -0.000263   1.999885   0.000018   0.000859   0.464864
    4             2.000268  -0.000931   0.000000  -0.000004   1.506244
    5            -0.000000   0.000000   0.000386   0.000001  -0.000140
    6             0.000000  -0.000001   0.000407  -0.000010   0.000157
    7            -0.000000   0.000008  -0.000001   0.000313   0.000293
    8            -0.000003   0.000441  -0.000002  -0.000004  -0.000856

                      6          7          8          9         10

                  2.000000   2.000000   2.000000   2.000000   2.000000

    1             0.745665   0.547148   0.247447   0.446331   0.439575
    2             0.849642   0.373085   0.443129   0.234050   0.350941
    3             0.227433   0.581069   0.502137   0.273818   0.389176
    4             0.043748   0.192670   0.194517   0.762997   0.419111
    5             0.039718   0.136008   0.019441   0.177682   0.049675
    6             0.044146   0.082629   0.123262   0.017902   0.205533
    7             0.040335   0.011475   0.217292   0.025672   0.071485
    8             0.009313   0.075916   0.252775   0.061548   0.074504

                     11         12         13         14         15

                  2.000000   2.000000   2.000000   2.000000   2.000000

    1             0.437090   0.551946   0.062192   0.032605   0.861859
    2             0.298023   0.395064   0.168750   0.240576   0.845720
    3             0.274046   0.095287   0.683919   0.178958   0.010095
    4             0.602569   0.186003   1.085138   1.230565   0.282326
    5             0.201173   0.150088   0.000000   0.016316   0.000000
    6             0.000568   0.320729   0.000000   0.005778   0.000000
    7             0.083278   0.296022   0.000000   0.029317   0.000000
    8             0.103253   0.004860   0.000000   0.265885   0.000000

               ----- POPULATIONS IN EACH AO -----
                             MULLIKEN      LOWDIN
              1  C  1  S      1.99656     1.98131
              2  C  1  S      0.66774     0.36219
              3  C  1  X      0.75347     0.67032
              4  C  1  Y      0.73008     0.65224
              5  C  1  Z      0.46409     0.43367
              6  C  1  S      0.60442     0.33694
              7  C  1  X      0.26151     0.39387
              8  C  1  Y      0.38008     0.45375
              9  C  1  Z      0.45201     0.48207
             10  C  1 XX      0.02741     0.18536
             11  C  1 YY      0.03293     0.18126
             12  C  1 ZZ     -0.02076     0.10377
             13  C  1 XY      0.01401     0.02466
             14  C  1 XZ      0.00628     0.00937
             15  C  1 YZ      0.00168     0.00235
             16  C  2  S      1.99660     1.98007
             17  C  2  S      0.66605     0.35823
             18  C  2  X      0.75369     0.66844
             19  C  2  Y      0.71363     0.64013
             20  C  2  Z      0.52712     0.48511
             21  C  2  S      0.54251     0.31302
             22  C  2  X      0.25739     0.38558
             23  C  2  Y      0.23325     0.36077
             24  C  2  Z      0.47890     0.50256
             25  C  2 XX      0.03031     0.18665
             26  C  2 YY      0.02308     0.17459
             27  C  2 ZZ     -0.01820     0.10586
             28  C  2 XY      0.01465     0.02793
             29  C  2 XZ      0.00647     0.00919
             30  C  2 YZ      0.00198     0.00456
             31  C  3  S      1.99677     1.97508
             32  C  3  S      0.69670     0.36213
             33  C  3  X      0.72826     0.64558
             34  C  3  Y      0.72725     0.63684
             35  C  3  Z      0.39558     0.35669
             36  C  3  S      0.43400     0.30215
             37  C  3  X      0.17179     0.32895
             38  C  3  Y      0.14611     0.32873
             39  C  3  Z      0.27628     0.33182
             40  C  3 XX      0.04754     0.21804
             41  C  3 YY      0.02907     0.19510
             42  C  3 ZZ     -0.02331     0.09853
             43  C  3 XY      0.03310     0.06393
             44  C  3 XZ      0.01411     0.02367
             45  C  3 YZ      0.00804     0.01572
             46  O  4  S      1.99559     1.97776
             47  O  4  S      0.91461     0.71511
             48  O  4  X      0.96611     0.90605
             49  O  4  Y      1.09713     1.05784
             50  O  4  Z      0.75784     0.71554
             51  O  4  S      0.95958     0.46899
             52  O  4  X      0.50613     0.58509
             53  O  4  Y      0.67098     0.68804
             54  O  4  Z      0.59564     0.61208
             55  O  4 XX      0.01293     0.18862
             56  O  4 YY      0.00545     0.17637
             57  O  4 ZZ      0.00051     0.16992
             58  O  4 XY      0.00874     0.01623
             59  O  4 XZ      0.01076     0.01197
             60  O  4 YZ      0.00323     0.00362
             61  H  5  S      0.51755     0.47836
             62  H  5  S      0.27280     0.34455
             63  H  6  S      0.51823     0.47818
             64  H  6  S      0.28287     0.35134
             65  H  7  S      0.51500     0.47763
             66  H  7  S      0.26048     0.34271
             67  H  8  S      0.52809     0.49743
             68  H  8  S      0.31954     0.37779

          ----- MULLIKEN ATOMIC OVERLAP POPULATIONS -----
          (OFF-DIAGONAL ELEMENTS NEED TO BE MULTIPLIED BY 2)

             1           2           3           4           5

    1    5.0927600
    2    0.5398726   5.1935985
    3   -0.0327590   0.3591690   4.4500480
    4    0.0028800  -0.0623070   0.5354689   8.0705620
    5    0.3877569  -0.0293816   0.0016364  -0.0000418   0.4547665
    6    0.3941788  -0.0472123  -0.0014671   0.0000381  -0.0224133
    7   -0.0285243   0.3802282  -0.0241802   0.0019910  -0.0018666
    8    0.0153329  -0.1065550   0.3933861  -0.0433694  -0.0001089

             6           7           8

    6    0.4717191
    7    0.0023502   0.4428148
    8    0.0039063   0.0026754   0.5823630

          TOTAL MULLIKEN AND LOWDIN ATOMIC POPULATIONS
       ATOM         MULL.POP.    CHARGE          LOW.POP.     CHARGE
    1 C             6.371498   -0.371498         6.273150   -0.273150
    2 C             6.227412   -0.227412         6.202663   -0.202663
    3 C             5.681302    0.318698         5.882972    0.117028
    4 O             8.505222   -0.505222         8.293233   -0.293233
    5 H             0.790348    0.209652         0.822907    0.177093
    6 H             0.801100    0.198900         0.829521    0.170479
    7 H             0.775488    0.224512         0.820334    0.179666
    8 H             0.847630    0.152370         0.875220    0.124780

          -------------------------------
          BOND ORDER AND VALENCE ANALYSIS     BOND ORDER THRESHOLD=0.050
          -------------------------------

                   BOND                       BOND                       BOND
  ATOM PAIR DIST  ORDER      ATOM PAIR DIST  ORDER      ATOM PAIR DIST  ORDER
    1   2  1.340  1.865        1   4  3.573  0.056        1   5  1.092  0.946
    1   6  1.095  0.948        2   3  1.477  1.002        2   7  1.094  0.933
    3   4  1.213  1.841        3   8  1.123  0.922

                       TOTAL       BONDED        FREE
      ATOM            VALENCE     VALENCE     VALENCE
    1 C                 3.823       3.823       0.000
    2 C                 3.754       3.754       0.000
    3 C                 3.777       3.777       0.000
    4 O                 1.927       1.927       0.000
    5 H                 0.930       0.930       0.000
    6 H                 0.932       0.932       0.000
    7 H                 0.924       0.924       0.000
    8 H                 0.931       0.931       0.000

          ---------------------
          ELECTROSTATIC MOMENTS
          ---------------------

 POINT   1           X           Y           Z (BOHR)    CHARGE
                -0.111994   -0.102023    0.000000        0.00 (A.U.)
         DX          DY          DZ         /D/  (DEBYE)
     2.911244    2.261793    0.000000    3.686604
 ...... END OF PROPERTY EVALUATION ......
 STEP CPU TIME =     0.01 TOTAL CPU TIME =          0.4 (      0.0 MIN)
 TOTAL WALL CLOCK TIME=          0.4 SECONDS, CPU UTILIZATION IS    99.08%
               580000  WORDS OF DYNAMIC MEMORY USED
 EXECUTION OF GAMESS TERMINATED NORMALLY 00:32:45 30-APR-2024    
 DDI: 263640 bytes (0.3 MB / 0 MWords) used by master data server.

 ----------------------------------------
 CPU timing information for all processes
 ========================================
 0: 0.340 + 0.40 = 0.380
 ----------------------------------------
 ddikick.x: exited gracefully.
----- accounting info -----
Files used on the master node muhka were:
-rw-r--r-- 1 humbel users   19787 Apr 30 00:32 /scratch/humbel.257278/acro_cas_cs.F05
-rw-r--r-- 1 humbel users 1766880 Apr 30 00:32 /scratch/humbel.257278/acro_cas_cs.F10
Tue Apr 30 12:32:48 AM CEST 2024
0.0u 0.0s 0:03.56 3.9% 0+0k 40+280io 0pf+0w
