----- GAMESS execution script 'rungms' -----
This job is running on host vista
under operating system Linux at Mon May 6 10:33:21 AM CEST 2024
Available scratch disk space (Kbyte units) at beginning of the job is
Filesystem                   1K-blocks     Used Available Use% Mounted on
/dev/mapper/vg--ctom-scratch 868492972 79856612 788636360  10% /scratch
GAMESS temporary binary files will be written to /scratch/humbel.257402
GAMESS supplementary output files will be written to /home/humbel/di-barrois/di-antracene/di-proj
Copying input file ./AAntr_CSF.inp to your run's scratch directory...

 Distributed Data Interface kickoff program.
 Initiating 1 compute processes on 1 nodes to run the following command:
 /home/humbel/fuming/softwares/gamess/2020-R2/gamess.xmvb.x AAntr_CSF 

          *******************************************************
          *                                                     *
          *          GAMESS VERSION = 30 SEP 2020 (R2)          *
          *                                                     *
          *              doi.org/10.1063/5.0005188              *
          *                                                     *
          **************** 64 BIT LINUX VERSION *****************

  GAMESS HAS BEEN MADE POSSIBLE WITH IMPORTANT CONTRIBUTIONS FROM
  THE FOLLOWING INDIVIDUALS (IN ALPHABETICAL ORDER):

     IVANA ADAMOVIC, CHRISTINE AIKENS, TOMOKO AKAMA,
     YURI ALEXEEV, YURIKO AOKI, POOJA ARORA, TOSHIO ASADA,
     ANDREY ASADCHEV, KIM K. BALDRIDGE, PRADIPTA BANDYOPADHYAY,
     MARIA BARYSZ, ROB BELL, JONATHAN BENTZ, COLLEEN BERTONI,
     JERRY A. BOATZ, BRETT BODE, KURT BRORSEN, KURT R. BRORSEN,
     LAIMUTIS BYTAUTAS, CALEB CARLIN, LAURA CARRINGTON,
     GALINA CHABAN, BENOIT CHAMPAGNE, WEI CHEN, MAHITO CHIBA,
     DAN CHIPMAN, CHEOL HO CHOI, TANNER CULPITT,
     DIPAYAN DATTA, PAUL DAY, ALBERT DEFUSCO,
     NUWAN DESILVA, J. EMILIANO DEUSTUA,
     TIM DUDLEY, MICHEL DUPUIS, STEVEN T. ELBERT,
     DMITRI FEDOROV, ALEX FINDLATER, GRAHAM FLETCHER,
     MARK FREITAG, CHRISTIAN FRIEDL, DAVID GARMER,
     IGOR S. GERASIMOV, KURT GLAESEMANN, MARK S. GORDON,
     JEFFREY GOUR, FENG LONG GU, EMILIE B. GUIDEZ,
     ANASTASIA GUNINA, SHARON HAMMES-SCHIFFER, MASATAKE HARUTA,
     KIMIHIKO HIRAO, YASUHIRO IKABATA, TZVETELIN IORDANOV,
     STEPHAN IRLE, KAZUYA ISHIMURA, JOE IVANIC, FRANK JENSEN,
     JAN H. JENSEN, VISVALDAS KAIRYS, MUNEAKI KAMIYA,
     MICHIO KATOUDA, NAOAKI KAWAKAMI, DAN KEMP, BERNARD KIRTMAN,
     KAZUO KITAURA, MARIUSZ KLOBUKOWSKI, MASATO KOBAYASHI,
     PRAKASHAN KORAMBATH, JACEK KORCHOWIEC, SHIRO KOSEKI,
     KAROL KOWALSKI, JIMMY KROMANN, STANISLAW KUCHARSKI,
     HENRY KURTZ, SAROM SOK LEANG, HUI LI, SHUHUA LI, WEI LI,
     JESSE LUTZ, ALEKSANDR O. LYKHIN, MARCIN MAKOWSKI,
     JOANI MATO, NIKITA MATSUNAGA, BENEDETTA MENNUCCI,
     GRANT MERRILL, NORIYUKI MINEZAWA, VLADIMIR MIRONOV,
     EISAKU MIYOSHI, JOHN A. MONTGOMERY JR., HIROTOSHI MORI,
     JONATHAN MULLIN, MONIKA MUSIAL, SHIGERU NAGASE,
     TAKESHI NAGATA, HIROMI NAKAI, TAKAHITO NAKAJIMA,
     YUYA NAKAJIMA, HARUYUKI NAKANO, HIROYA NAKATA, SEAN NEDD,
     HEATHER NETZLOFF, KIET A. NGUYEN, YOSHIO NISHIMOTO,
     BOSILJKA NJEGIC, RYAN OLSON, MIKE PAK, ROBERTO PEVERATI,
     BUU PHAM, PIOTR PIECUCH, ANNA POMOGAEVA, DAVID POOLE,
     SPENCER PRUITT, OLIVIER QUINET, LUKE ROSKOP,
     KLAUS RUEDENBERG, ANDREW SAND, TOSAPORN SATTASATHUCHANA,
     NOZOMI SAWADA, MICHAEL W. SCHMIDT, PATRICK E. SCHNEIDER,
     JUNJI SEINO, PRACHI SHARMA, JUN SHEN, JIM SHOEMAKER,
     YINAN SHU, DEJUN SI, JONATHAN SKONE, LYUDMILA SLIPCHENKO,
     TONY SMITH, JIE SONG, MARK SPACKMAN, CASPER STEINMANN,
     WALT STEVENS, PEIFENG SU, SHUJUN SU, CHET SWALINA,
     TETSUYA TAKETSUGU, ZHEN TAO, NANDUN THELLAMUREGE
     SEIKEN TOKURA, JACOPO TOMASI, TSUGUKI TOUMA, TAKAO TSUNEDA,
     HIROAKI UMEDA, JORGE LUIS GALVEZ VALLEJO, YALI WANG,
     SIMON WEBB, AARON WEST, THERESA L. WINDUS, MARTA WLOCH,
     PENG XU, KIYOSHI YAGI, SUSUMU YANAGISAWA, YANG YANG,
     SOOHAENG YOO, TAKESHI YOSHIKAWA, FEDERICO ZAHARIEV,
     TOBY ZENG

  WHO ARE SUPPORTED BY THEIR INSTITUTION/UNIVERSITY/COMPANY/GROUP
  (IN ALPHABETICAL ORDER):

     EP ANALYTICS, FACULTES UNIVERSITAIRES NOTRE-DAME DE LA PAIX,
     INSTITUTE FOR MOLECULAR SCIENCE, IOWA STATE UNIVERSITY,
     JACKSON STATE UNIVERSITY, JOHANNES KEPLER UNIVERSITY LINZ,
     KYUSHU UNIVERSITY, MICHIGAN STATE UNIVERSITY,
     MIE UNIVERSITY, MOSCOW STATE UNIVERSITY,
     N. COPERNICUS UNIVERSITY, NAGOYA UNIVERSITY,
     NANJING UNIVERSITY, NAT. INST. OF ADVANCED INDUSTRIAL
     SCIENCE AND TECHNOLOGY, NATIONAL INST. OF STANDARDS AND
     TECHNOLOGY, NESMEYANOV INSTITUTE OF ORGANOELEMENT COMPOUNDS
     OF RUSSIAN ACADEMY OF SCIENCES, OSAKA PREFECTURE UNIVERSITY,
     PENNSYLVANIA STATE UNIVERSITY, TOKYO INSTITUTE OF TECHNOLOGY,
     UNIVERSITY OF AARHUS, UNIVERSITY OF ALBERTA,
     UNIVERSITY OF CALIFORNIA AT SANTA BARBARA,
     UNIVERSITY OF COPENHAGEN, UNIVERSITY OF IOWA,
     UNIVERSITY OF MEMPHIS, UNIVERSITY OF MINNESOTA,
     UNIVERSITY OF NEBRASKA, UNIVERSITY OF NEW ENGLAND,
     UNIVERSITY OF NOTRE DAME, UNIVERSITY OF PISA,
     UNIVERSITY OF SILESIA, UNIVERSITY OF TOKYO,
     UNIVERSITY OF ZURICH, WASEDA UNIVERSITY, YALE UNIVERSITY

  GAMESS SOFTWARE MANAGEMENT TEAM FOR THIS RELEASE:
     MARK S. GORDON (TEAM LEAD),
     BRETT BODE (SENIOR ADVISOR),
     GIUSEPPE BARCA,
     COLLEEN BERTONI,
     KRISTOPHER KEIPERT (ADVISOR),
     SAROM S. LEANG (DEVELOPMENT LEAD),
     BUU PHAM,
     JORGE LUIS GALVEZ VALLEJO (WEBSITE ADMINISTRATOR),
     PENG XU

 EXECUTION OF GAMESS BEGUN 10:33:21 06-MAY-2024    

            ECHO OF THE FIRST FEW INPUT CARDS -
 INPUT CARD>!   File created by MacMolPlt 7.7.2                                             
 INPUT CARD>! $CONTRL SCFTYP=RHF RUNTYP=ENERGY MAXIT=200 MULT=1 $END                        
 INPUT CARD>! $CONTRL SCFTYP=MCSCF RUNTYP=ENERGY MAXIT=200 MULT=1 $END                      
 INPUT CARD> $CONTRL   SCFTYP=MCSCF RUNTYP=ENERGY  $END                                     
 INPUT CARD> $CONTRL   MAXIT=90  MULT=1  $END                                               
 INPUT CARD> $CONTRL   VBTYP=NONE  $END                                                     
 INPUT CARD>! $CONTRL  VBTYP=XMVB  $END                                                     
 INPUT CARD> $CONTRL  COORD=UNIQUE                 $END                                     
 INPUT CARD> $MCSCF CISTEP=GUGA $END                                                        
 INPUT CARD> $DRT    GROUP=C1  FORS=.TRUE. NMCC=46 NDOC=1 NVAL=1 $END                       
 INPUT CARD> $GUGDIA NSTATE=2 $END                                                          
 INPUT CARD> $GUGDM2 WSTATE(1)=1.0,0.0 $END                                                 
 INPUT CARD> $SYSTEM TIMLIM=525600 MEMORY=1000000 $END                                      
 INPUT CARD> $BASIS GBASIS=N31 NGAUSS=6 $END                                                
 INPUT CARD> $GUESS GUESS=MOREAD                                                            
 INPUT CARD> NORB=48                                                                        
 INPUT CARD> $END                                                                           
 INPUT CARD>! $MOFRZ FRZ=.T.                                                                
 INPUT CARD>! IFRZ(1)=1,2,3,4,5,6,7,8,9,10,11,12,13,14,15,16,17,18,19,20,21,22,23           
 INPUT CARD>! IFRZ(24)=24,25,26,27,28,29,30,31,32,33,34,35,36,37,38,39,40                   
 INPUT CARD>! $END                                                                          
 INPUT CARD>! $DET                                                                          
 INPUT CARD>! PRTTOL=0.  NCORE=46  NACT=2 NELS=2 ISTSYM=1                                   
 INPUT CARD>!! PRTTOL=0.  NCORE=7  NACT=2 NELS=2 ISTSYM=6                                   
 INPUT CARD>!!                                 D2h Ag B1g B2g B3g Au B1u B2u B3u            
 INPUT CARD>!                              ISTSYM  1  2   3   4   5   6   7   8             
 INPUT CARD>! NSTATE=2                                                                      
 INPUT CARD>! WSTATE(1)=1.0,0.0                                                             
 INPUT CARD>! PURES=.true. SZ=0                                                             
 INPUT CARD>! $END                                                                          
 INPUT CARD> $SCF DIRSCF=.TRUE. $END                                                        
 INPUT CARD> $DATA                                                                          
 INPUT CARD>anthracene opt C2H gaussian                                                     
 INPUT CARD>C1                                                                              
 INPUT CARD>C  6.0     0.00000    -2.47682     -1.40470                                     
 INPUT CARD>C  6.0    -0.00000    -0.00000      1.40119                                     
 INPUT CARD>C  6.0     0.00000    -2.47682      1.40470                                     
 INPUT CARD>C  6.0     0.00000     0.00000     -1.40119                                     
 INPUT CARD>C  6.0     0.00000    -3.65503     -0.71227                                     
 INPUT CARD>C  6.0    -0.00000     1.22202      0.72155                                     
 INPUT CARD>C  6.0     0.00000    -3.65503      0.71227                                     
 INPUT CARD>C  6.0    -0.00000     1.22202     -0.72155                                     
 INPUT CARD>C  6.0    -0.00000    -1.22202      0.72155                                     
 INPUT CARD>C  6.0     0.00000    -1.22202     -0.72155                                     
 INPUT CARD>C  6.0    -0.00000     3.65503      0.71227                                     
 INPUT CARD>C  6.0     0.00000     3.65503     -0.71227                                     
 INPUT CARD>C  6.0    -0.00000     2.47682      1.40470                                     
 INPUT CARD>C  6.0     0.00000     2.47682     -1.40470                                     
 INPUT CARD>H  1.0     0.00000     2.47711     -2.49085                                     
 INPUT CARD>H  1.0     0.00000    -2.47711      2.49085                                     
    1000000 WORDS OF MEMORY AVAILABLE

     BASIS OPTIONS
     -------------
     GBASIS=N31          IGAUSS=       6      POLAR=NONE    
     NDFUNC=       0     NFFUNC=       0     DIFFSP=       F
     NPFUNC=       0      DIFFS=       F     BASNAM=        


     RUN TITLE
     ---------
 anthracene opt C2H gaussian                                                     

 THE POINT GROUP OF THE MOLECULE IS C1      
 THE ORDER OF THE PRINCIPAL AXIS IS     0

 ATOM      ATOMIC                      COORDINATES (BOHR)
           CHARGE         X                   Y                   Z
 C           6.0     0.0000000000       -4.6805111209       -2.6544980950
 C           6.0    -0.0000000000       -0.0000000000        2.6478651567
 C           6.0     0.0000000000       -4.6805111209        2.6544980950
 C           6.0     0.0000000000        0.0000000000       -2.6478651567
 C           6.0     0.0000000000       -6.9070051769       -1.3459951293
 C           6.0    -0.0000000000        2.3092829515        1.3635317864
 C           6.0     0.0000000000       -6.9070051769        1.3459951293
 C           6.0    -0.0000000000        2.3092829515       -1.3635317864
 C           6.0    -0.0000000000       -2.3092829515        1.3635317864
 C           6.0     0.0000000000       -2.3092829515       -1.3635317864
 C           6.0    -0.0000000000        6.9070051769        1.3459951293
 C           6.0     0.0000000000        6.9070051769       -1.3459951293
 C           6.0    -0.0000000000        4.6805111209        2.6544980950
 C           6.0     0.0000000000        4.6805111209       -2.6544980950
 H           1.0     0.0000000000        4.6810591414       -4.7070239765
 H           1.0     0.0000000000       -4.6810591414        4.7070239765
 H           1.0     0.0000000000        0.0000000000       -4.7019595109
 H           1.0    -0.0000000000       -0.0000000000        4.7019595109
 H           1.0    -0.0000000000        4.6810591414        4.7070239765
 H           1.0     0.0000000000       -4.6810591414       -4.7070239765
 H           1.0    -0.0000000000        8.6937033038        2.3528789301
 H           1.0     0.0000000000       -8.6937033038       -2.3528789301
 H           1.0     0.0000000000        8.6937033038       -2.3528789301
 H           1.0     0.0000000000       -8.6937033038        2.3528789301

          INTERNUCLEAR DISTANCES (ANGS.)
          ------------------------------

                1 C          2 C          3 C          4 C          5 C     

   1 C       0.0000000    3.7426803    2.8094000 *  2.4768225 *  1.3666156 *
   2 C       3.7426803    0.0000000    2.4768225 *  2.8023800 *  4.2220798  
   3 C       2.8094000 *  2.4768225 *  0.0000000    3.7426803    2.4227548 *
   4 C       2.4768225 *  2.8023800 *  3.7426803    0.0000000    3.7193891  
   5 C       1.3666156 *  4.2220798    2.4227548 *  3.7193891    0.0000000  
   6 C       4.2664220    1.3983002 *  3.7613975    2.4493587 *  5.0834493  
   7 C       2.4227548 *  3.7193891    1.3666156 *  4.2220798    1.4245400 *
   8 C       3.7613975    2.4493587 *  4.2664220    1.3983002 *  4.8770588  
   9 C       2.4688990 *  1.3983002 *  1.4287116 *  2.4493587 *  2.8240711 *
  10 C       1.4287116 *  2.4493587 *  2.4688990 *  1.3983002 *  2.4330277 *
  11 C       6.4869983    3.7193891    6.1708220    4.2220798    7.4475695  
  12 C       6.1708220    4.2220798    6.4869983    3.7193891    7.3100600  
  13 C       5.6948466    2.4768225 *  4.9536400    3.7426803    6.4869983  
  14 C       4.9536400    3.7426803    5.6948466    2.4768225 *  6.1708220  
  15 H       5.0716017    4.6134639    6.3021212    2.7061842 *  6.3848640  
  16 H       3.8955500    2.7061842 *  1.0861500 *  4.6134639    3.4128395  
  17 H       2.7034320 *  3.8893600    4.6140085    1.0869800 *  4.0636271  
  18 H       4.6140085    1.0869800 *  2.7034320 *  3.8893600    4.8581952  
  19 H       6.3021212    2.7061842 *  5.0716017    4.6134639    6.9183176  
  20 H       1.0861500 *  4.6134639    3.8955500    2.7061842 *  2.1332703 *
  21 H       7.5571150    4.6031576    7.0791296    5.3073054    8.4844092  
  22 H       2.1296795 *  5.3073054    3.3957983    4.6031576    1.0852786 *
  23 H       7.0791296    5.3073054    7.5571150    4.6031576    8.2727165  
  24 H       3.3957983    4.6031576    2.1296795 *  5.3073054    2.1737504 *

                6 C          7 C          8 C          9 C         10 C     

   1 C       4.2664220    2.4227548 *  3.7613975    2.4688990 *  1.4287116 *
   2 C       1.3983002 *  3.7193891    2.4493587 *  1.3983002 *  2.4493587 *
   3 C       3.7613975    1.3666156 *  4.2664220    1.4287116 *  2.4688990 *
   4 C       2.4493587 *  4.2220798    1.3983002 *  2.4493587 *  1.3983002 *
   5 C       5.0834493    1.4245400 *  4.8770588    2.8240711 *  2.4330277 *
   6 C       0.0000000    4.8770588    1.4431000 *  2.4440400 *  2.8382863 *
   7 C       4.8770588    0.0000000    5.0834493    2.4330277 *  2.8240711 *
   8 C       1.4431000 *  5.0834493    0.0000000    2.8382863 *  2.4440400 *
   9 C       2.4440400 *  2.4330277 *  2.8382863 *  0.0000000    1.4431000 *
  10 C       2.8382863 *  2.8240711 *  2.4440400 *  1.4431000 *  0.0000000  
  11 C       2.4330277 *  7.3100600    2.8240711 *  4.8770588    5.0834493  
  12 C       2.8240711 *  7.4475695    2.4330277 *  5.0834493    4.8770588  
  13 C       1.4287116 *  6.1708220    2.4688990 *  3.7613975    4.2664220  
  14 C       2.4688990 *  6.4869983    1.4287116 *  4.2664220    3.7613975  
  15 H       3.4488788    6.9183176    2.1692564 *  4.8992935    4.1004860  
  16 H       4.1004860    2.1332703 *  4.8992935    2.1692564 *  3.4488788  
  17 H       3.4344775    4.8581952    2.1480873 *  3.4344775    2.1480873 *
  18 H       2.1480873 *  4.0636271    3.4344775    2.1480873 *  3.4344775  
  19 H       2.1692564 *  6.3848640    3.4488788    4.1004860    4.8992935  
  20 H       4.8992935    3.4128395    4.1004860    3.4488788    2.1692564 *
  21 H       3.4188139    8.2727165    3.9092029    5.8460200    6.1456919  
  22 H       6.1456919    2.1737504 *  5.8460200    3.9092029    3.4188139  
  23 H       3.9092029    8.4844092    3.4188139    6.1456919    5.8460200  
  24 H       5.8460200    1.0852786 *  6.1456919    3.4188139    3.9092029  

               11 C         12 C         13 C         14 C         15 H     

   1 C       6.4869983    6.1708220    5.6948466    4.9536400    5.0716017  
   2 C       3.7193891    4.2220798    2.4768225 *  3.7426803    4.6134639  
   3 C       6.1708220    6.4869983    4.9536400    5.6948466    6.3021212  
   4 C       4.2220798    3.7193891    3.7426803    2.4768225 *  2.7061842 *
   5 C       7.4475695    7.3100600    6.4869983    6.1708220    6.3848640  
   6 C       2.4330277 *  2.8240711 *  1.4287116 *  2.4688990 *  3.4488788  
   7 C       7.3100600    7.4475695    6.1708220    6.4869983    6.9183176  
   8 C       2.8240711 *  2.4330277 *  2.4688990 *  1.4287116 *  2.1692564 *
   9 C       4.8770588    5.0834493    3.7613975    4.2664220    4.8992935  
  10 C       5.0834493    4.8770588    4.2664220    3.7613975    4.1004860  
  11 C       0.0000000    1.4245400 *  1.3666156 *  2.4227548 *  3.4128395  
  12 C       1.4245400 *  0.0000000    2.4227548 *  1.3666156 *  2.1332703 *
  13 C       1.3666156 *  2.4227548 *  0.0000000    2.8094000 *  3.8955500  
  14 C       2.4227548 *  1.3666156 *  2.8094000 *  0.0000000    1.0861500 *
  15 H       3.4128395    2.1332703 *  3.8955500    1.0861500 *  0.0000000  
  16 H       6.3848640    6.9183176    5.0716017    6.3021212    7.0257833  
  17 H       4.8581952    4.0636271    4.6140085    2.7034320 *  2.4771114 *
  18 H       4.0636271    4.8581952    2.7034320 *  4.6140085    5.5611792  
  19 H       2.1332703 *  3.4128395    1.0861500 *  3.8955500    4.9817000  
  20 H       6.9183176    6.3848640    6.3021212    5.0716017    4.9542200  
  21 H       1.0852786 *  2.1737504 *  2.1296795 *  3.3957983    4.2972172  
  22 H       8.4844092    8.2727165    7.5571150    7.0791296    7.1864193  
  23 H       2.1737504 *  1.0852786 *  3.3957983    2.1296795 *  2.4618581 *
  24 H       8.2727165    8.4844092    7.0791296    7.5571150    8.0031214  

               16 H         17 H         18 H         19 H         20 H     

   1 C       3.8955500    2.7034320 *  4.6140085    6.3021212    1.0861500 *
   2 C       2.7061842 *  3.8893600    1.0869800 *  2.7061842 *  4.6134639  
   3 C       1.0861500 *  4.6140085    2.7034320 *  5.0716017    3.8955500  
   4 C       4.6134639    1.0869800 *  3.8893600    4.6134639    2.7061842 *
   5 C       3.4128395    4.0636271    4.8581952    6.9183176    2.1332703 *
   6 C       4.1004860    3.4344775    2.1480873 *  2.1692564 *  4.8992935  
   7 C       2.1332703 *  4.8581952    4.0636271    6.3848640    3.4128395  
   8 C       4.8992935    2.1480873 *  3.4344775    3.4488788    4.1004860  
   9 C       2.1692564 *  3.4344775    2.1480873 *  4.1004860    3.4488788  
  10 C       3.4488788    2.1480873 *  3.4344775    4.8992935    2.1692564 *
  11 C       6.3848640    4.8581952    4.0636271    2.1332703 *  6.9183176  
  12 C       6.9183176    4.0636271    4.8581952    3.4128395    6.3848640  
  13 C       5.0716017    4.6140085    2.7034320 *  1.0861500 *  6.3021212  
  14 C       6.3021212    2.7034320 *  4.6140085    3.8955500    5.0716017  
  15 H       7.0257833    2.4771114 *  5.5611792    4.9817000    4.9542200  
  16 H       0.0000000    5.5611792    2.4771114 *  4.9542200    4.9817000  
  17 H       5.5611792    0.0000000    4.9763400    5.5611792    2.4771114 *
  18 H       2.4771114 *  4.9763400    0.0000000    2.4771114 *  5.5611792  
  19 H       4.9542200    5.5611792    2.4771114 *  0.0000000    7.0257833  
  20 H       4.9817000    2.4771114 *  5.5611792    7.0257833    0.0000000  
  21 H       7.1864193    5.9246875    4.7654947    2.4618581 *  8.0031214  
  22 H       4.2972172    4.7654947    5.9246875    8.0031214    2.4618581 *
  23 H       8.0031214    4.7654947    5.9246875    4.2972172    7.1864193  
  24 H       2.4618581 *  5.9246875    4.7654947    7.1864193    4.2972172  

               21 H         22 H         23 H         24 H     

   1 C       7.5571150    2.1296795 *  7.0791296    3.3957983  
   2 C       4.6031576    5.3073054    5.3073054    4.6031576  
   3 C       7.0791296    3.3957983    7.5571150    2.1296795 *
   4 C       5.3073054    4.6031576    4.6031576    5.3073054  
   5 C       8.4844092    1.0852786 *  8.2727165    2.1737504 *
   6 C       3.4188139    6.1456919    3.9092029    5.8460200  
   7 C       8.2727165    2.1737504 *  8.4844092    1.0852786 *
   8 C       3.9092029    5.8460200    3.4188139    6.1456919  
   9 C       5.8460200    3.9092029    6.1456919    3.4188139  
  10 C       6.1456919    3.4188139    5.8460200    3.9092029  
  11 C       1.0852786 *  8.4844092    2.1737504 *  8.2727165  
  12 C       2.1737504 *  8.2727165    1.0852786 *  8.4844092  
  13 C       2.1296795 *  7.5571150    3.3957983    7.0791296  
  14 C       3.3957983    7.0791296    2.1296795 *  7.5571150  
  15 H       4.2972172    7.1864193    2.4618581 *  8.0031214  
  16 H       7.1864193    4.2972172    8.0031214    2.4618581 *
  17 H       5.9246875    4.7654947    4.7654947    5.9246875  
  18 H       4.7654947    5.9246875    5.9246875    4.7654947  
  19 H       2.4618581 *  8.0031214    4.2972172    7.1864193  
  20 H       8.0031214    2.4618581 *  7.1864193    4.2972172  
  21 H       0.0000000    9.5320389    2.4901800 *  9.2010200  
  22 H       9.5320389    0.0000000    9.2010200    2.4901800 *
  23 H       2.4901800 *  9.2010200    0.0000000    9.5320389  
  24 H       9.2010200    2.4901800 *  9.5320389    0.0000000  

  * ... LESS THAN  3.000


     ATOMIC BASIS SET
     ----------------
 THE CONTRACTED PRIMITIVE FUNCTIONS HAVE BEEN UNNORMALIZED
 THE CONTRACTED BASIS FUNCTIONS ARE NOW NORMALIZED TO UNITY

  SHELL TYPE  PRIMITIVE        EXPONENT          CONTRACTION COEFFICIENT(S)

 C         

      1   S       1          3047.5248800    0.001834737132
      1   S       2           457.3695180    0.014037322813
      1   S       3           103.9486850    0.068842622264
      1   S       4            29.2101553    0.232184443216
      1   S       5             9.2866630    0.467941348435
      1   S       6             3.1639270    0.362311985337

      2   L       7             7.8682723   -0.119332419775    0.068999066591
      2   L       8             1.8812885   -0.160854151696    0.316423960957
      2   L       9             0.5442493    1.143456437840    0.744308290898

      3   L      10             0.1687145    1.000000000000    1.000000000000

 C         

      4   S      11          3047.5248800    0.001834737132
      4   S      12           457.3695180    0.014037322813
      4   S      13           103.9486850    0.068842622264
      4   S      14            29.2101553    0.232184443216
      4   S      15             9.2866630    0.467941348435
      4   S      16             3.1639270    0.362311985337

      5   L      17             7.8682723   -0.119332419775    0.068999066591
      5   L      18             1.8812885   -0.160854151696    0.316423960957
      5   L      19             0.5442493    1.143456437840    0.744308290898

      6   L      20             0.1687145    1.000000000000    1.000000000000

 C         

      7   S      21          3047.5248800    0.001834737132
      7   S      22           457.3695180    0.014037322813
      7   S      23           103.9486850    0.068842622264
      7   S      24            29.2101553    0.232184443216
      7   S      25             9.2866630    0.467941348435
      7   S      26             3.1639270    0.362311985337

      8   L      27             7.8682723   -0.119332419775    0.068999066591
      8   L      28             1.8812885   -0.160854151696    0.316423960957
      8   L      29             0.5442493    1.143456437840    0.744308290898

      9   L      30             0.1687145    1.000000000000    1.000000000000

 C         

     10   S      31          3047.5248800    0.001834737132
     10   S      32           457.3695180    0.014037322813
     10   S      33           103.9486850    0.068842622264
     10   S      34            29.2101553    0.232184443216
     10   S      35             9.2866630    0.467941348435
     10   S      36             3.1639270    0.362311985337

     11   L      37             7.8682723   -0.119332419775    0.068999066591
     11   L      38             1.8812885   -0.160854151696    0.316423960957
     11   L      39             0.5442493    1.143456437840    0.744308290898

     12   L      40             0.1687145    1.000000000000    1.000000000000

 C         

     13   S      41          3047.5248800    0.001834737132
     13   S      42           457.3695180    0.014037322813
     13   S      43           103.9486850    0.068842622264
     13   S      44            29.2101553    0.232184443216
     13   S      45             9.2866630    0.467941348435
     13   S      46             3.1639270    0.362311985337

     14   L      47             7.8682723   -0.119332419775    0.068999066591
     14   L      48             1.8812885   -0.160854151696    0.316423960957
     14   L      49             0.5442493    1.143456437840    0.744308290898

     15   L      50             0.1687145    1.000000000000    1.000000000000

 C         

     16   S      51          3047.5248800    0.001834737132
     16   S      52           457.3695180    0.014037322813
     16   S      53           103.9486850    0.068842622264
     16   S      54            29.2101553    0.232184443216
     16   S      55             9.2866630    0.467941348435
     16   S      56             3.1639270    0.362311985337

     17   L      57             7.8682723   -0.119332419775    0.068999066591
     17   L      58             1.8812885   -0.160854151696    0.316423960957
     17   L      59             0.5442493    1.143456437840    0.744308290898

     18   L      60             0.1687145    1.000000000000    1.000000000000

 C         

     19   S      61          3047.5248800    0.001834737132
     19   S      62           457.3695180    0.014037322813
     19   S      63           103.9486850    0.068842622264
     19   S      64            29.2101553    0.232184443216
     19   S      65             9.2866630    0.467941348435
     19   S      66             3.1639270    0.362311985337

     20   L      67             7.8682723   -0.119332419775    0.068999066591
     20   L      68             1.8812885   -0.160854151696    0.316423960957
     20   L      69             0.5442493    1.143456437840    0.744308290898

     21   L      70             0.1687145    1.000000000000    1.000000000000

 C         

     22   S      71          3047.5248800    0.001834737132
     22   S      72           457.3695180    0.014037322813
     22   S      73           103.9486850    0.068842622264
     22   S      74            29.2101553    0.232184443216
     22   S      75             9.2866630    0.467941348435
     22   S      76             3.1639270    0.362311985337

     23   L      77             7.8682723   -0.119332419775    0.068999066591
     23   L      78             1.8812885   -0.160854151696    0.316423960957
     23   L      79             0.5442493    1.143456437840    0.744308290898

     24   L      80             0.1687145    1.000000000000    1.000000000000

 C         

     25   S      81          3047.5248800    0.001834737132
     25   S      82           457.3695180    0.014037322813
     25   S      83           103.9486850    0.068842622264
     25   S      84            29.2101553    0.232184443216
     25   S      85             9.2866630    0.467941348435
     25   S      86             3.1639270    0.362311985337

     26   L      87             7.8682723   -0.119332419775    0.068999066591
     26   L      88             1.8812885   -0.160854151696    0.316423960957
     26   L      89             0.5442493    1.143456437840    0.744308290898

     27   L      90             0.1687145    1.000000000000    1.000000000000

 C         

     28   S      91          3047.5248800    0.001834737132
     28   S      92           457.3695180    0.014037322813
     28   S      93           103.9486850    0.068842622264
     28   S      94            29.2101553    0.232184443216
     28   S      95             9.2866630    0.467941348435
     28   S      96             3.1639270    0.362311985337

     29   L      97             7.8682723   -0.119332419775    0.068999066591
     29   L      98             1.8812885   -0.160854151696    0.316423960957
     29   L      99             0.5442493    1.143456437840    0.744308290898

     30   L     100             0.1687145    1.000000000000    1.000000000000

 C         

     31   S     101          3047.5248800    0.001834737132
     31   S     102           457.3695180    0.014037322813
     31   S     103           103.9486850    0.068842622264
     31   S     104            29.2101553    0.232184443216
     31   S     105             9.2866630    0.467941348435
     31   S     106             3.1639270    0.362311985337

     32   L     107             7.8682723   -0.119332419775    0.068999066591
     32   L     108             1.8812885   -0.160854151696    0.316423960957
     32   L     109             0.5442493    1.143456437840    0.744308290898

     33   L     110             0.1687145    1.000000000000    1.000000000000

 C         

     34   S     111          3047.5248800    0.001834737132
     34   S     112           457.3695180    0.014037322813
     34   S     113           103.9486850    0.068842622264
     34   S     114            29.2101553    0.232184443216
     34   S     115             9.2866630    0.467941348435
     34   S     116             3.1639270    0.362311985337

     35   L     117             7.8682723   -0.119332419775    0.068999066591
     35   L     118             1.8812885   -0.160854151696    0.316423960957
     35   L     119             0.5442493    1.143456437840    0.744308290898

     36   L     120             0.1687145    1.000000000000    1.000000000000

 C         

     37   S     121          3047.5248800    0.001834737132
     37   S     122           457.3695180    0.014037322813
     37   S     123           103.9486850    0.068842622264
     37   S     124            29.2101553    0.232184443216
     37   S     125             9.2866630    0.467941348435
     37   S     126             3.1639270    0.362311985337

     38   L     127             7.8682723   -0.119332419775    0.068999066591
     38   L     128             1.8812885   -0.160854151696    0.316423960957
     38   L     129             0.5442493    1.143456437840    0.744308290898

     39   L     130             0.1687145    1.000000000000    1.000000000000

 C         

     40   S     131          3047.5248800    0.001834737132
     40   S     132           457.3695180    0.014037322813
     40   S     133           103.9486850    0.068842622264
     40   S     134            29.2101553    0.232184443216
     40   S     135             9.2866630    0.467941348435
     40   S     136             3.1639270    0.362311985337

     41   L     137             7.8682723   -0.119332419775    0.068999066591
     41   L     138             1.8812885   -0.160854151696    0.316423960957
     41   L     139             0.5442493    1.143456437840    0.744308290898

     42   L     140             0.1687145    1.000000000000    1.000000000000

 H         

     43   S     141            18.7311370    0.033494604338
     43   S     142             2.8253944    0.234726953484
     43   S     143             0.6401217    0.813757326146

     44   S     144             0.1612778    1.000000000000

 H         

     45   S     145            18.7311370    0.033494604338
     45   S     146             2.8253944    0.234726953484
     45   S     147             0.6401217    0.813757326146

     46   S     148             0.1612778    1.000000000000

 H         

     47   S     149            18.7311370    0.033494604338
     47   S     150             2.8253944    0.234726953484
     47   S     151             0.6401217    0.813757326146

     48   S     152             0.1612778    1.000000000000

 H         

     49   S     153            18.7311370    0.033494604338
     49   S     154             2.8253944    0.234726953484
     49   S     155             0.6401217    0.813757326146

     50   S     156             0.1612778    1.000000000000

 H         

     51   S     157            18.7311370    0.033494604338
     51   S     158             2.8253944    0.234726953484
     51   S     159             0.6401217    0.813757326146

     52   S     160             0.1612778    1.000000000000

 H         

     53   S     161            18.7311370    0.033494604338
     53   S     162             2.8253944    0.234726953484
     53   S     163             0.6401217    0.813757326146

     54   S     164             0.1612778    1.000000000000

 H         

     55   S     165            18.7311370    0.033494604338
     55   S     166             2.8253944    0.234726953484
     55   S     167             0.6401217    0.813757326146

     56   S     168             0.1612778    1.000000000000

 H         

     57   S     169            18.7311370    0.033494604338
     57   S     170             2.8253944    0.234726953484
     57   S     171             0.6401217    0.813757326146

     58   S     172             0.1612778    1.000000000000

 H         

     59   S     173            18.7311370    0.033494604338
     59   S     174             2.8253944    0.234726953484
     59   S     175             0.6401217    0.813757326146

     60   S     176             0.1612778    1.000000000000

 H         

     61   S     177            18.7311370    0.033494604338
     61   S     178             2.8253944    0.234726953484
     61   S     179             0.6401217    0.813757326146

     62   S     180             0.1612778    1.000000000000

 TOTAL NUMBER OF BASIS SET SHELLS             =   62
 NUMBER OF CARTESIAN GAUSSIAN BASIS FUNCTIONS =  146
 NUMBER OF ELECTRONS                          =   94
 CHARGE OF MOLECULE                           =    0
 SPIN MULTIPLICITY                            =    1
 NUMBER OF OCCUPIED ORBITALS (ALPHA)          =   47
 NUMBER OF OCCUPIED ORBITALS (BETA )          =   47
 TOTAL NUMBER OF ATOMS                        =   24
 THE NUCLEAR REPULSION ENERGY IS      766.3548992199

     $CONTRL OPTIONS
     ---------------
 SCFTYP=MCSCF        RUNTYP=ENERGY       EXETYP=RUN     
 MPLEVL=       0     CITYP =NONE         CCTYP =NONE         VBTYP =NONE    
 DFTTYP=NONE         TDDFT =NONE    
 MULT  =       1     ICHARG=       0     NZVAR =       0     COORD =UNIQUE  
 PP    =NONE         RELWFN=NONE         LOCAL =NONE         NUMGRD=       F
 ISPHER=      -1     NOSYM =       0     MAXIT =      90     UNITS =ANGS    
 PLTORB=       F     MOLPLT=       F     AIMPAC=       F     FRIEND=        
 NPRINT=       7     IREST =       0     GEOM  =INPUT   
 NORMF =       0     NORMP =       0     ITOL  =      20     ICUT  =       9
 INTTYP=BEST         GRDTYP=BEST         QMTTOL= 1.0E-06

     $SYSTEM OPTIONS
     ---------------
  REPLICATED MEMORY=     1000000 WORDS (ON EVERY NODE).
 DISTRIBUTED MEMDDI=           0 MILLION WORDS IN AGGREGATE,
 MEMDDI DISTRIBUTED OVER   1 PROCESSORS IS           0 WORDS/PROCESSOR.
 TOTAL MEMORY REQUESTED ON EACH PROCESSOR=     1000000 WORDS.
 TIMLIM=      525600.00 MINUTES, OR     365.0 DAYS.
 PARALL= F  BALTYP=  DLB     KDIAG=    0  COREFL= F
 MXSEQ2=     300 MXSEQ3=     150  mem10=         0  mem22=         0

 Using Gaussians for PCM contribution to MEP, params: 0.10000E+01 0.10000E-07

          ----------------
          PROPERTIES INPUT
          ----------------

     MOMENTS            FIELD           POTENTIAL          DENSITY
 IEMOM =       1   IEFLD =       0   IEPOT =       0   IEDEN =       0
 WHERE =COMASS     WHERE =NUCLEI     WHERE =NUCLEI     WHERE =NUCLEI  
 OUTPUT=BOTH       OUTPUT=BOTH       OUTPUT=BOTH       OUTPUT=BOTH    
 IEMINT=       0   IEFINT=       0                     IEDINT=       0
                                                       MORB  =       0

     -------------------------------
     INTEGRAL TRANSFORMATION OPTIONS
     -------------------------------
     NWORD  =            0
     CUTOFF = 1.0E-09     MPTRAN =       0
     DIRTRF =       F     AOINTS =DUP     

          ----------------------
          MCSCF INPUT PARAMETERS
          ----------------------
 CONVERGER SELECTION: FOCAS = F  SOSCF = T  FULLNR = F  QUD = F  JACOBI = F
 SECULAR EQUATION METHOD CISTEP = GUGA    
 --- GENERAL INPUT OPTIONS:
 MAXIT =      60  MICIT =       5  ACURCY= 1.000E-05
 DAMP  =   0.000  CANONC=       T  ENGTOL= 1.000E-10
 EKT   =       F  NPUNCH=       2  NWORD =         0
 REGENERATE CI AFTER CONVERGENCE = NONE    
 DIABATIZATION AFTER CONVERGENCE =        F
 --- INPUT FOR SOSCF CONVERGER:
 FORS  =       T  NOFO  =       1

          ----------------------
          INTEGRAL INPUT OPTIONS
          ----------------------
 NOPK  =       1 NORDER=       0 SCHWRZ=       T

     ------------------------------------------
     THE POINT GROUP IS C1 , NAXIS= 0, ORDER= 1
     ------------------------------------------

     DIMENSIONS OF THE SYMMETRY SUBSPACES ARE
 A   =  146

 ..... DONE SETTING UP THE RUN .....
 STEP CPU TIME =     0.04 TOTAL CPU TIME =          0.0 (      0.0 MIN)
 TOTAL WALL CLOCK TIME=          0.0 SECONDS, CPU UTILIZATION IS    96.78%

          ********************
          1 ELECTRON INTEGRALS
          ********************
 TIME TO DO   DIPOLE INTEGRALS=      0.02
 ...... END OF ONE-ELECTRON INTEGRALS ......
 STEP CPU TIME =     0.02 TOTAL CPU TIME =          0.1 (      0.0 MIN)
 TOTAL WALL CLOCK TIME=          0.1 SECONDS, CPU UTILIZATION IS    97.62%

          -------------
          GUESS OPTIONS
          -------------
          GUESS =MOREAD            NORB  =      48          NORDER=       0
          MIX   =       F          PRTMO =       F          PUNMO =       F
          TOLZ  = 1.0E-08          TOLE  = 1.0E-05
          SYMDEN=       F          PURIFY=       F

 INITIAL GUESS ORBITALS GENERATED BY MOREAD   ROUTINE.

 SYMMETRIES FOR INITIAL GUESS ORBITALS FOLLOW.   BOTH SET(S).
    48 ORBITALS ARE OCCUPIED (   14 CORE ORBITALS).
     1=A        2=A        3=A        4=A        5=A        6=A        7=A   
     8=A        9=A       10=A       11=A       12=A       13=A       14=A   
    15=A       16=A       17=A       18=A       19=A       20=A       21=A   
    22=A       23=A       24=A       25=A       26=A       27=A       28=A   
    29=A       30=A       31=A       32=A       33=A       34=A       35=A   
    36=A       37=A       38=A       39=A       40=A       41=A       42=A   
    43=A       44=A       45=A       46=A       47=A       48=A       49=A   
    50=A       51=A       52=A       53=A       54=A       55=A       56=A   
    57=A       58=A       59=A       60=A       61=A       62=A       63=A   
    64=A       65=A       66=A       67=A       68=A       69=A       70=A   
    71=A       72=A       73=A       74=A       75=A       76=A       77=A   
    78=A       79=A       80=A       81=A       82=A       83=A       84=A   
    85=A       86=A       87=A       88=A       89=A       90=A       91=A   
    92=A       93=A       94=A       95=A       96=A       97=A       98=A   
    99=A      100=A      101=A      102=A      103=A      104=A      105=A   
   106=A      107=A      108=A      109=A      110=A      111=A      112=A   
   113=A      114=A      115=A      116=A      117=A      118=A      119=A   
   120=A      121=A      122=A      123=A      124=A      125=A      126=A   
   127=A      128=A      129=A      130=A      131=A      132=A      133=A   
   134=A      135=A      136=A      137=A      138=A      139=A      140=A   
   141=A      142=A      143=A      144=A      145=A      146=A   
 ...... END OF INITIAL ORBITAL SELECTION ......
 STEP CPU TIME =     0.01 TOTAL CPU TIME =          0.1 (      0.0 MIN)
 TOTAL WALL CLOCK TIME=          0.1 SECONDS, CPU UTILIZATION IS    97.98%

                    ----------------------
                    AO INTEGRAL TECHNOLOGY
                    ----------------------
     S,P,L SHELL ROTATED AXIS INTEGRALS, REPROGRAMMED BY
        KAZUYA ISHIMURA (IMS) AND JOSE SIERRA (SYNSTAR).
     S,P,D,L SHELL ROTATED AXIS INTEGRALS PROGRAMMED BY
        KAZUYA ISHIMURA (INSTITUTE FOR MOLECULAR SCIENCE).
     S,P,D,F,G SHELL TO TOTAL QUARTET ANGULAR MOMENTUM SUM 5,
        ERIC PROGRAM BY GRAHAM FLETCHER (ELORET AND NASA ADVANCED
        SUPERCOMPUTING DIVISION, AMES RESEARCH CENTER).
     S,P,D,F,G,L SHELL GENERAL RYS QUADRATURE PROGRAMMED BY
        MICHEL DUPUIS (PACIFIC NORTHWEST NATIONAL LABORATORY).

          --------------------
          2 ELECTRON INTEGRALS
          --------------------

 THE -PK- OPTION IS OFF, THE INTEGRALS ARE NOT IN SUPERMATRIX FORM.
 STORING   15000 INTEGRALS/RECORD ON DISK, USING 12 BYTES/INTEGRAL.
 TWO ELECTRON INTEGRAL EVALUATION REQUIRES   91309 WORDS OF MEMORY.
 SCHWARZ INEQUALITY OVERHEAD:     10132 INTEGRALS, T=        0.00
 II,JST,KST,LST =  1  1  1  1 NREC =         1 INTLOC =    1
 II,JST,KST,LST =  2  1  1  1 NREC =         1 INTLOC =    2
 II,JST,KST,LST =  3  1  1  1 NREC =         1 INTLOC =   34
 II,JST,KST,LST =  4  1  1  1 NREC =         1 INTLOC =  214
 II,JST,KST,LST =  5  1  1  1 NREC =         1 INTLOC =  361
 II,JST,KST,LST =  6  1  1  1 NREC =         1 INTLOC = 2045
 II,JST,KST,LST =  7  1  1  1 NREC =         1 INTLOC = 6326
 II,JST,KST,LST =  8  1  1  1 NREC =         1 INTLOC = 7554
 II,JST,KST,LST =  9  1  1  1 NREC =         2 INTLOC = 1294
 II,JST,KST,LST = 10  1  1  1 NREC =         3 INTLOC = 1322
 II,JST,KST,LST = 11  1  1  1 NREC =         3 INTLOC = 4806
 II,JST,KST,LST = 12  1  1  1 NREC =         4 INTLOC =14560
 II,JST,KST,LST = 13  1  1  1 NREC =         7 INTLOC = 9297
 II,JST,KST,LST = 14  1  1  1 NREC =         8 INTLOC = 3039
 II,JST,KST,LST = 15  1  1  1 NREC =        11 INTLOC = 9797
 II,JST,KST,LST = 16  1  1  1 NREC =        17 INTLOC = 1617
 II,JST,KST,LST = 17  1  1  1 NREC =        18 INTLOC =  406
 II,JST,KST,LST = 18  1  1  1 NREC =        23 INTLOC = 7148
 II,JST,KST,LST = 19  1  1  1 NREC =        32 INTLOC = 6795
 II,JST,KST,LST = 20  1  1  1 NREC =        34 INTLOC = 2628
 II,JST,KST,LST = 21  1  1  1 NREC =        43 INTLOC = 9452
 II,JST,KST,LST = 22  1  1  1 NREC =        57 INTLOC =13329
 II,JST,KST,LST = 23  1  1  1 NREC =        60 INTLOC = 3849
 II,JST,KST,LST = 24  1  1  1 NREC =        73 INTLOC = 5966
 II,JST,KST,LST = 25  1  1  1 NREC =        94 INTLOC =  379
 II,JST,KST,LST = 26  1  1  1 NREC =        99 INTLOC = 4343
 II,JST,KST,LST = 27  1  1  1 NREC =       125 INTLOC =13703
 II,JST,KST,LST = 28  1  1  1 NREC =       158 INTLOC =11701
 II,JST,KST,LST = 29  1  1  1 NREC =       166 INTLOC =10283
 II,JST,KST,LST = 30  1  1  1 NREC =       205 INTLOC = 1175
 II,JST,KST,LST = 31  1  1  1 NREC =       251 INTLOC = 2168
 II,JST,KST,LST = 32  1  1  1 NREC =       254 INTLOC = 3099
 II,JST,KST,LST = 33  1  1  1 NREC =       274 INTLOC = 8233
 II,JST,KST,LST = 34  1  1  1 NREC =       313 INTLOC = 9727
 II,JST,KST,LST = 35  1  1  1 NREC =       318 INTLOC = 5856
 II,JST,KST,LST = 36  1  1  1 NREC =       346 INTLOC =11658
 II,JST,KST,LST = 37  1  1  1 NREC =       396 INTLOC = 7391
 II,JST,KST,LST = 38  1  1  1 NREC =       405 INTLOC = 5003
 II,JST,KST,LST = 39  1  1  1 NREC =       455 INTLOC = 4809
 II,JST,KST,LST = 40  1  1  1 NREC =       530 INTLOC = 8756
 II,JST,KST,LST = 41  1  1  1 NREC =       541 INTLOC =12962
 II,JST,KST,LST = 42  1  1  1 NREC =       605 INTLOC =13879
 II,JST,KST,LST = 43  1  1  1 NREC =       700 INTLOC = 2830
 II,JST,KST,LST = 44  1  1  1 NREC =       716 INTLOC = 8552
 II,JST,KST,LST = 45  1  1  1 NREC =       743 INTLOC = 1640
 II,JST,KST,LST = 46  1  1  1 NREC =       759 INTLOC =14647
 II,JST,KST,LST = 47  1  1  1 NREC =       787 INTLOC = 7420
 II,JST,KST,LST = 48  1  1  1 NREC =       809 INTLOC =14325
 II,JST,KST,LST = 49  1  1  1 NREC =       843 INTLOC =10234
 II,JST,KST,LST = 50  1  1  1 NREC =       867 INTLOC = 2270
 II,JST,KST,LST = 51  1  1  1 NREC =       902 INTLOC = 9151
 II,JST,KST,LST = 52  1  1  1 NREC =       922 INTLOC = 7244
 II,JST,KST,LST = 53  1  1  1 NREC =       954 INTLOC =13276
 II,JST,KST,LST = 54  1  1  1 NREC =       975 INTLOC = 4664
 II,JST,KST,LST = 55  1  1  1 NREC =      1008 INTLOC =12492
 II,JST,KST,LST = 56  1  1  1 NREC =      1025 INTLOC = 7039
 II,JST,KST,LST = 57  1  1  1 NREC =      1052 INTLOC =11510
 II,JST,KST,LST = 58  1  1  1 NREC =      1069 INTLOC =11294
 II,JST,KST,LST = 59  1  1  1 NREC =      1097 INTLOC = 9367
 II,JST,KST,LST = 60  1  1  1 NREC =      1115 INTLOC =10114
 II,JST,KST,LST = 61  1  1  1 NREC =      1144 INTLOC =13600
 II,JST,KST,LST = 62  1  1  1 NREC =      1163 INTLOC = 4990
 SCHWARZ INEQUALITY TEST SKIPPED     1032288 INTEGRAL BLOCKS.
 TOTAL NUMBER OF NONZERO TWO-ELECTRON INTEGRALS =            17882623
       1193 INTEGRAL RECORDS WERE STORED ON DISK FILE  8.
  ...... END OF TWO-ELECTRON INTEGRALS .....
 STEP CPU TIME =     1.52 TOTAL CPU TIME =          1.6 (      0.0 MIN)
 TOTAL WALL CLOCK TIME=          1.6 SECONDS, CPU UTILIZATION IS    99.84%

          -----------------
          MCSCF CALCULATION
          -----------------

 ----- NUCLEAR ENERGY ----- =       766.3548992199

          -----------------------     ----------------------------
          GUGA DISTINCT ROW TABLE     WRITTEN BY B.R.BROOKS,P.SAXE
          -----------------------     ----------------------------

      GROUP=C1           NPRT=       0
       FORS=       T   INTACT=       F
       FOCI=       F   MXNINT=   50000
       SOCI=       F   MXNEME=   10000
     IEXCIT=       0

      -CORE-    -INTERNAL-  -EXTERNAL-
     NFZC=   0   NDOC=   1   NEXT=   0
     NMCC=  46   NAOS=   0   NFZV=   0
                 NBOS=   0
                 NALP=   0
                 NVAL=   1

 THE MAXIMUM ELECTRON EXCITATION WILL BE   2

 SYMMETRIES FOR THE  46 CORE,   2 ACTIVE,   0 EXTERNAL MO-S ARE
     CORE= A     A     A     A     A     A     A     A     A     A   
           A     A     A     A     A     A     A     A     A     A   
           A     A     A     A     A     A     A     A     A     A   
           A     A     A     A     A     A     A     A     A     A   
           A     A     A     A     A     A   
   ACTIVE= A     A   
           DOC   VAL 

 MOLECULAR CHARGE          =    0
 NUMBER OF ALPHA ELECTRONS =   47
 NUMBER OF  BETA ELECTRONS =   47

 THE ELECTRONIC STATE IS  1-A   

 THE DISTINCT ROW TABLE HAS         5 ROWS.
  THE WAVEFUNCTION CONTAINS         3 WALKS (CSF-S).

 TOTAL NUMBER OF INTEGRALS =          9
 NUMBER OF INTEGRALS/GROUP =          9
 NUMBER OF INTEGRAL GROUPS =          1
 MAXIMUM RECORD SIZES ARE     500 FOR UNIT 11      22 FOR UNIT 12
                            30001 FOR UNIT 15   30001 FOR UNIT 16
 ...... END OF -DRT- GENERATION ...... 
 STEP CPU TIME =     0.01 TOTAL CPU TIME =          1.6 (      0.0 MIN)
 TOTAL WALL CLOCK TIME=          1.6 SECONDS, CPU UTILIZATION IS    99.84%
 OPENING FILE DAFL30 WITH      81 LOGICAL RECORDS OF   21316 WORDS
 WITH A MAXIMUM OF         891 PHYSICAL RECORDS OF    2048 WORDS

          ------------------------------
          CASSCF INTEGRAL TRANSFORMATION
          ------------------------------
 AO INTEGRALS WILL BE READ IN FROM DISK...

 NUMBER OF CORE MOLECULAR ORBITALS     =    46
 NUMBER OF OCCUPIED MOLECULAR ORBITALS =    48
 TOTAL NUMBER OF MOLECULAR ORBITALS    =   146
 TOTAL NUMBER OF ATOMIC ORBITALS       =   146
 MEMORY WHICH WOULD BE NEEDED FOR SINGLE PASS TRANSFORMATION =    3279301

 ----- CHOOSING THREE STEPS TRANSFORMATION -----
 NUMBER OF WORDS USED      =     937334
 NUMBER OF WORDS AVAILABLE =     999999
 NUMBER OF PASSES          =          4
 PASS #   1 COMPLETED IN         0.2 SECONDS.
 PASS #   2 COMPLETED IN         0.1 SECONDS.
 PASS #   3 COMPLETED IN         0.1 SECONDS.
 PASS #   4 COMPLETED IN         0.1 SECONDS.

 ----- NUCLEAR REPULSION ENERGY =    766.35489922
 ----- FROZEN CORE ENERGY       =  -1301.12665754

 ... SYMMETRY ...           CPU =    0.00
 ... (PQ|RS) -> (PQ|KL) ... CPU =    0.64
 ... (PQ|KL) -> (IJ|KL) ... CPU =    0.00

 NUMBER OF (PQ|KL) INTEGRALS WRITTEN      17993
 NUMBER OF (IJ|KL) INTEGRALS WRITTEN          6
 ..... END OF CAS INTEGRAL TRANSFORMATION .....
 STEP CPU TIME =     0.65 TOTAL CPU TIME =          2.2 (      0.0 MIN)
 TOTAL WALL CLOCK TIME=          2.3 SECONDS, CPU UTILIZATION IS    99.88%

          ------------------------
          GUGA-CI INTEGRAL SORTING
          ------------------------

     80017 WORDS NEEDED TO SORT              9 GUGA INTEGRALS IN MEMORY
    999999 WORDS ARE AVAILABLE
 CHOOSING IN-MEMORY SORTING...
 IN CORE ALGORITHM SORTED              3 NON-ZERO 1E- INTEGRALS
 IN CORE ALGORITHM SORTED              6 NON-ZERO 2E- INTEGRALS
 ...... END OF INTEGRAL SORTING ...... 
 STEP CPU TIME =     0.00 TOTAL CPU TIME =          2.3 (      0.0 MIN)
 TOTAL WALL CLOCK TIME=          2.3 SECONDS, CPU UTILIZATION IS    99.88%

 -------------------------     ---------------------------------------
 ENERGY MATRIX CALCULATION     WRITTEN BY B.R.BROOKS,W.D.LAIDIG,P.SAXE
 -------------------------     ---------------------------------------

 COMPUTING THE HAMILTONIAN FOR THE         3 CSF-S...

           8 IS THE TOTAL NUMBER OF GENERATED LOOPS
           8 WERE CREATED BY THE LOOP-DRIVEN ALGORITHM
           0 WERE CREATED IMPLICITLY

           8 IS THE TOTAL NUMBER OF PROCESSED LOOPS
           5     DIAGONAL LOOPS ARE STORED ON WORK15 IN     1 BUFFERS OF  10000 ELEMENTS.
           3 OFF DIAGONAL LOOPS ARE STORED ON WORK16 IN     1 BUFFERS OF  10000 ELEMENTS.
 ...... END OF ENERGY MATRIX CALCULATION ...... 
 STEP CPU TIME =     0.00 TOTAL CPU TIME =          2.3 (      0.0 MIN)
 TOTAL WALL CLOCK TIME=          2.3 SECONDS, CPU UTILIZATION IS    99.88%

          -----------------------------------------
          DAVIDSON METHOD CI-MATRIX DIAGONALIZATION
                   WRITTEN BY STEVE ELBERT
          -----------------------------------------
 NUMBER OF STATES REQUESTED =     2
 MAX. NUMB. OF EXPAN. VEC   =    30
 MAX. NUMB. IMPROVED STATES =     2
 MAX. NUMB. OF ITERATIONS   =    50
 CONVERGENCE CRITERION      =    1.0E-05

 CHOOSING TO SOLVE SECULAR EQUATION IN MEMORY
 NUMBER OF WORDS AVAILABLE =     999999
 NUMBER OF WORDS USED      =      31110
 ENERGY MATRIX BUFFER SIZE =      10000
 SOLUTION FOUND WITH DIRECT METHOD

 STATE #    1  ENERGY =    -535.703327713

      CSF      COEF    OCCUPANCY (IGNORING CORE)
      ---      ----    --------- --------- -----
        1    0.981666  20
        3   -0.190580  02

 STATE #    2  ENERGY =    -535.364241033

      CSF      COEF    OCCUPANCY (IGNORING CORE)
      ---      ----    --------- --------- -----
        2    0.999662  11

 RENORMALIZED DAVIDSON CORRECTION FOR     1-REFERENCE CI.
 C0SQ= 0.963668 EREF=     -535.685179 E-E(REF)=   0.018148 E(Q)=   0.000684
 GIVES A E(SD+Q) ESTIMATE OF     -535.7040119462
 ...... END OF CI-MATRIX DIAGONALIZATION ......
 STEP CPU TIME =     0.00 TOTAL CPU TIME =          2.3 (      0.0 MIN)
 TOTAL WALL CLOCK TIME=          2.3 SECONDS, CPU UTILIZATION IS    99.88%

          -------------------------------------
          2-PARTICLE DENSITY MATRIX CALCULATION
          -------------------------------------
 2 BODY DENSITY IS AN AVERAGE OF  1 STATE(S).
   STATE    WEIGHT          ENERGY
     1    1.000000     -535.7033277132
            8 -DM2- LOOPS WERE GENERATED
            8 WERE CREATED BY THE LOOP-DRIVEN ALGORITHM
            0 WERE CREATED IMPLICITLY
          1 RECORDS OF LENGTH 50000 WRITTEN TO FILE 15
 ...... END OF 2-PARTICLE DENSITY MATRIX CALCULATION ......
 STEP CPU TIME =     0.00 TOTAL CPU TIME =          2.3 (      0.0 MIN)
 TOTAL WALL CLOCK TIME=          2.3 SECONDS, CPU UTILIZATION IS    99.88%

          ----------------------------------
          2-PARTICLE DENSITY MATRIX LABELING
          ----------------------------------
      97574 WORDS NEEDED TO LABEL DM2 MATRIX
          1 RECORDS OF LENGTH 50000  READ FROM FILE 15
          1 RECORDS OF LENGTH 15000 WRITTEN TO FILE 16
 ...... END OF 2-PARTICLE DENSITY MATRIX LABELING ......
 STEP CPU TIME =     0.00 TOTAL CPU TIME =          2.3 (      0.0 MIN)
 TOTAL WALL CLOCK TIME=          2.3 SECONDS, CPU UTILIZATION IS    99.87%

          --------------
          -DM2- ORDERING
          --------------
      30010 WORDS NEEDED (    999999 AVAILABLE) TO ORDER DM2 IN MEMORY
 CHOOSING IN MEMORY ORDERING...
                               1 RECORDS OF LENGTH 15000  READ FROM FILE 16
          6 DM2 VALUES IN      1 RECORDS OF LENGTH 15000 WRITTEN TO FILE 15
 ...... END OF -DM2- ORDERING ...... 
 STEP CPU TIME =     0.00 TOTAL CPU TIME =          2.3 (      0.0 MIN)
 TOTAL WALL CLOCK TIME=          2.3 SECONDS, CPU UTILIZATION IS    99.87%

          --------------------------------------
          APPROXIMATE SECOND-ORDER MCSCF PROGRAM
          --------------------------------------
          PROGRAM WRITTEN BY G.CHABAN, A.MARQUEZ, AND M.DUPUIS

  NUMBER OF WORDS NEEDED     =     195101
  NUMBER AVAILABLE           =     999999

 ----- GAMMA(IJKL)*(PQ|KL) PRODUCTS ----- CPU TIME =      0.000
 ----- ORBITAL SYMMETRY             ----- CPU TIME =      0.000
 ----- FOCK OPERATORS CONSTRUCTION  ----- CPU TIME =      0.160
 ----- WARNING : CORE-ACTIVE GAP    =    0.00252
     MICIT =   1 ASYMM =    0.653454 ROTMAX =    0.023156
 ----- EFFECTIVE FOCK + ROTATE ORBS ----- CPU TIME =      0.009
     MICIT =   2 ASYMM =    0.509641 ROTMAX =    0.003305
     MICIT =   3 ASYMM =    0.495826 ROTMAX =    0.003151
     MICIT =   4 ASYMM =    0.486452 ROTMAX =    0.003189
     MICIT =   5 ASYMM =    0.449508 ROTMAX =    0.002652
 ..... DONE WITH CASSCF ORBITAL UPDATE .....
 STEP CPU TIME =     0.23 TOTAL CPU TIME =          2.5 (      0.0 MIN)
 TOTAL WALL CLOCK TIME=          2.5 SECONDS, CPU UTILIZATION IS    99.88%

 ITER     TOTAL ENERGY      DEL(E)  LAGRANGIAN ASYMMETRY   SQCDF  MICIT   DAMP
   1     -535.703327713 -0.703327713  0.653454   98    1 2.316E-02  5   0.0000
       ----------START APPROXIMATE SECOND ORDER MCSCF----------
   2     -535.807615407 -0.104287694  0.141996  133    1 3.458E-04  2   0.0000
   3     -535.825753029 -0.018137622  0.022321  133    1 7.475E-05  1   0.0000
   4     -535.826156987 -0.000403959  0.005124   91    1 1.246E-05  1   0.0000
   5     -535.826195462 -0.000038475  0.001543  104    1 1.318E-06  1   0.0000
   6     -535.826199732 -0.000004270  0.000785   61    1 2.344E-07  1   0.0000
   7     -535.826200344 -0.000000612  0.000222   64    1 2.475E-08  1   0.0000
   8     -535.826200417 -0.000000073  0.000078   61    1 4.410E-09  1   0.0000
   9     -535.826200430 -0.000000012  0.000028   98    1 1.229E-09  1   0.0000
  10     -535.826200432 -0.000000002  0.000008  125    1 3.581E-10  1   0.0000

          --------------------
          LAGRANGIAN CONVERGED
          --------------------

 FINAL MCSCF ENERGY IS     -535.8262004319 AFTER  10 ITERATIONS

 -MCCI- BASED ON OPTIMIZED ORBITALS
 ----------------------------------

 PLEASE NOTE: IF THE ACTIVE ORBITALS ARE CANONICALIZED BELOW,
 THE FOLLOWING CI EXPANSION COEFFICIENTS AND THE DENSITY DO NOT
 CORRESPOND TO THE PRINTED ORBITALS.  THE PRINTED EXPANSIONS MATCH
 THE ORBITALS USED DURING THE LAST ITERATION.  IF YOU WISH TO SEE
 CI EXPANSIONS BASED ON THE CANONICAL (OR NATURAL) ORBITALS, YOU
 MUST RUN A CI CALCULATION WITH THAT ORBITAL CHOICE READ IN $VEC.

 STATE #    1  ENERGY =    -535.826200432

      CSF      COEF    OCCUPANCY (IGNORING CORE)
      ---      ----    --------- --------- -----
        1    0.981671  20
        2    0.002844  11
        3   -0.190560  02

 STATE #    2  ENERGY =    -535.487108567

      CSF      COEF    OCCUPANCY (IGNORING CORE)
      ---      ----    --------- --------- -----
        1   -0.008036  20
        2    0.999617  11
        3   -0.026480  02

 DENSITY MATRIX OVER ACTIVE MO-S

             1           2

    1    1.9273659
    2    0.0031814   0.0726341

 FORMING THE "STANDARD FOCK OPERATOR" USING INTEGRALS FROM DISK...
    46 FILLED,    2 ACTIVE, AND   98 VIRTUAL ORBITALS  WILL BE CANONICALIZED

          ----------------------
          MCSCF NATURAL ORBITALS
          ----------------------

                      1          2          3          4          5
                  -11.2507   -11.2507   -11.2498   -11.2497   -11.2418
                     A          A          A          A          A   
    1  C  1  S    0.021290   0.024072   0.029367   0.030677   0.444360
    2  C  1  S    0.000137   0.000213   0.000269   0.000237   0.010781
    3  C  1  X   -0.000000   0.000000  -0.000000  -0.000000  -0.000000
    4  C  1  Y   -0.000112  -0.000120  -0.000118  -0.000055   0.000146
    5  C  1  Z   -0.000060  -0.000090  -0.000051  -0.000047   0.000053
    6  C  1  S    0.001891   0.001646   0.001813   0.004494  -0.005851
    7  C  1  X   -0.000000   0.000000  -0.000000  -0.000000  -0.000000
    8  C  1  Y    0.001413   0.000750   0.000891   0.000143  -0.000984
    9  C  1  Z    0.000270   0.000418   0.000857   0.002715  -0.000676
   10  C  2  S    0.050658   0.002817  -0.047748  -0.001042  -0.003532
   11  C  2  S    0.000203   0.000011  -0.000210  -0.000005  -0.000130
   12  C  2  X   -0.000000   0.000000  -0.000000  -0.000000  -0.000000
   13  C  2  Y   -0.000016   0.000299   0.000004  -0.000170   0.000023
   14  C  2  Z    0.000187   0.000010  -0.000081  -0.000002  -0.000020
   15  C  2  S    0.006368   0.000354  -0.009240  -0.000201   0.000380
   16  C  2  X   -0.000000   0.000000  -0.000000  -0.000000  -0.000000
   17  C  2  Y    0.000118  -0.002144   0.000001  -0.000042  -0.000874
   18  C  2  Z   -0.001824  -0.000102   0.004498   0.000098   0.000016
   19  C  3  S    0.025229   0.028033  -0.025233  -0.026884   0.526010
   20  C  3  S    0.000171   0.000238  -0.000236  -0.000201   0.012855
   21  C  3  X   -0.000000   0.000000  -0.000000  -0.000000  -0.000000
   22  C  3  Y   -0.000130  -0.000127   0.000098   0.000038   0.000155
   23  C  3  Z    0.000066   0.000096  -0.000040  -0.000034  -0.000090
   24  C  3  S    0.002138   0.002278  -0.001492  -0.004229  -0.007513
   25  C  3  X   -0.000000   0.000000  -0.000000  -0.000000  -0.000000
   26  C  3  Y    0.001545   0.000769  -0.000648  -0.000042  -0.000977
   27  C  3  Z   -0.000378  -0.000801   0.000808   0.002630   0.001164
   28  C  4  S    0.034253   0.001894   0.043756   0.000964  -0.001415
   29  C  4  S   -0.000042  -0.000002  -0.000051  -0.000001  -0.000089
   30  C  4  X   -0.000000   0.000000  -0.000000  -0.000000  -0.000000
   31  C  4  Y   -0.000015   0.000273  -0.000005   0.000211   0.000018
   32  C  4  Z   -0.000175  -0.000010  -0.000114  -0.000002   0.000018
   33  C  4  S    0.005019   0.000276   0.010379   0.000227   0.000492
   34  C  4  X   -0.000000   0.000000  -0.000000  -0.000000  -0.000000
   35  C  4  Y    0.000118  -0.002127   0.000005  -0.000259  -0.000733
   36  C  4  Z    0.001156   0.000063   0.004788   0.000105   0.000116
   37  C  5  S    0.000804   0.000879   0.002176   0.002384   0.408883
   38  C  5  S   -0.000063  -0.000069   0.000091   0.000163   0.009515
   39  C  5  X   -0.000000   0.000000  -0.000000  -0.000000  -0.000000
   40  C  5  Y   -0.000042  -0.000067  -0.000016  -0.000047   0.000044
   41  C  5  Z    0.000013   0.000011   0.000036   0.000054  -0.000070
   42  C  5  S    0.000463   0.000025  -0.000879  -0.002915  -0.002592
   43  C  5  X   -0.000000   0.000000  -0.000000  -0.000000  -0.000000
   44  C  5  Y    0.000123   0.000098  -0.000442  -0.001546   0.000417
   45  C  5  Z   -0.000180   0.000043  -0.000562  -0.000499   0.000261
   46  C  6  S    0.562707  -0.500817  -0.465025   0.451090   0.012246
   47  C  6  S    0.013929  -0.012439  -0.012524   0.012049   0.000501
   48  C  6  X   -0.000000   0.000000  -0.000000  -0.000000  -0.000000
   49  C  6  Y    0.000018   0.000087   0.000045  -0.000001   0.000119
   50  C  6  Z    0.000100  -0.000056   0.000193  -0.000182   0.000001
   51  C  6  S   -0.009503   0.007139   0.016845  -0.013537  -0.001028
   52  C  6  X   -0.000000   0.000000  -0.000000  -0.000000  -0.000000
   53  C  6  Y    0.000513  -0.000022  -0.002803  -0.001965  -0.001306
   54  C  6  Z   -0.001239   0.000574  -0.003431   0.004504   0.000009
   55  C  7  S    0.001075   0.001165  -0.001976  -0.002203   0.431484
   56  C  7  S   -0.000051  -0.000046  -0.000098  -0.000171   0.010012
   57  C  7  X   -0.000000   0.000000  -0.000000  -0.000000  -0.000000
   58  C  7  Y   -0.000043  -0.000072   0.000009   0.000037   0.000035
   59  C  7  Z   -0.000018  -0.000019   0.000033   0.000052   0.000045
   60  C  7  S    0.000350  -0.000390   0.000946   0.002888  -0.002131
   61  C  7  X   -0.000000   0.000000  -0.000000  -0.000000  -0.000000
   62  C  7  Y    0.000070  -0.000123   0.000455   0.001544   0.000813
   63  C  7  Z    0.000261   0.000031  -0.000524  -0.000500  -0.000252
   64  C  8  S    0.480435  -0.435262   0.545904  -0.519355   0.010273
   65  C  8  S    0.011741  -0.010699   0.014526  -0.013736   0.000417
   66  C  8  X   -0.000000   0.000000  -0.000000  -0.000000  -0.000000
   67  C  8  Y    0.000023   0.000086  -0.000045   0.000013   0.000112
   68  C  8  Z   -0.000131   0.000079   0.000175  -0.000173   0.000003
   69  C  8  S   -0.006797   0.005261  -0.018186   0.014444  -0.000730
   70  C  8  X   -0.000000   0.000000  -0.000000  -0.000000  -0.000000
   71  C  8  Y    0.000122  -0.000316   0.002900   0.001940  -0.000932
   72  C  8  Z    0.001753  -0.001179  -0.003187   0.004375   0.000113
   73  C  9  S    0.504060   0.560032  -0.444723  -0.470842  -0.027247
   74  C  9  S    0.012473   0.013905  -0.011982  -0.012581  -0.001177
   75  C  9  X   -0.000000   0.000000  -0.000000  -0.000000  -0.000000
   76  C  9  Y   -0.000028   0.000084  -0.000045  -0.000003   0.000250
   77  C  9  Z    0.000094   0.000066   0.000184   0.000190   0.000018
   78  C  9  S   -0.008661  -0.008150   0.016236   0.014258   0.002644
   79  C  9  X   -0.000000   0.000000  -0.000000  -0.000000  -0.000000
   80  C  9  Y   -0.000507  -0.000079   0.002887  -0.001841  -0.002194
   81  C  9  Z   -0.001170  -0.000707  -0.003231  -0.004649  -0.000092
   82  C 10  S    0.429321   0.485485   0.522837   0.542808  -0.022854
   83  C 10  S    0.010485   0.011925   0.013915   0.014360  -0.000971
   84  C 10  X   -0.000000   0.000000  -0.000000  -0.000000  -0.000000
   85  C 10  Y   -0.000032   0.000083   0.000044   0.000015   0.000234
   86  C 10  Z   -0.000121  -0.000092   0.000167   0.000180  -0.000027
   87  C 10  S   -0.006173  -0.005974  -0.017540  -0.015226   0.001547
   88  C 10  X   -0.000000   0.000000  -0.000000  -0.000000  -0.000000
   89  C 10  Y   -0.000087  -0.000326  -0.002982   0.001811  -0.001832
   90  C 10  Z    0.001611   0.001366  -0.002992  -0.004510  -0.000221
   91  C 11  S    0.001195  -0.001037  -0.002069   0.002113  -0.190635
   92  C 11  S   -0.000056   0.000041  -0.000106   0.000166  -0.004435
   93  C 11  X   -0.000000   0.000000  -0.000000  -0.000000  -0.000000
   94  C 11  Y    0.000051  -0.000067  -0.000011   0.000036   0.000020
   95  C 11  Z   -0.000020   0.000016   0.000035  -0.000051  -0.000022
   96  C 11  S    0.000305   0.000427   0.001072  -0.002844   0.001018
   97  C 11  X   -0.000000   0.000000  -0.000000  -0.000000  -0.000000
   98  C 11  Y   -0.000056  -0.000130  -0.000522   0.001523   0.000340
   99  C 11  Z    0.000263  -0.000002  -0.000546   0.000477   0.000168
  100  C 12  S    0.000896  -0.000785   0.002277  -0.002285  -0.181787
  101  C 12  S   -0.000071   0.000062   0.000098  -0.000159  -0.004243
  102  C 12  X   -0.000000   0.000000  -0.000000  -0.000000  -0.000000
  103  C 12  Y    0.000049  -0.000062   0.000018  -0.000046   0.000022
  104  C 12  Z    0.000014  -0.000009   0.000038  -0.000053   0.000031
  105  C 12  S    0.000463   0.000027  -0.001005   0.002873   0.001270
  106  C 12  X   -0.000000   0.000000  -0.000000  -0.000000  -0.000000
  107  C 12  Y   -0.000133   0.000084   0.000509  -0.001525   0.000151
  108  C 12  Z   -0.000175  -0.000062  -0.000584   0.000474  -0.000153
  109  C 13  S    0.028155  -0.025060  -0.026382   0.025753  -0.231938
  110  C 13  S    0.000196  -0.000218  -0.000244   0.000190  -0.005685
  111  C 13  X   -0.000000   0.000000  -0.000000  -0.000000  -0.000000
  112  C 13  Y    0.000143  -0.000112  -0.000099   0.000034   0.000077
  113  C 13  Z    0.000077  -0.000088  -0.000042   0.000033   0.000037
  114  C 13  S    0.002374  -0.002028  -0.001676   0.004160   0.003468
  115  C 13  X   -0.000000   0.000000  -0.000000  -0.000000  -0.000000
  116  C 13  Y   -0.001619   0.000594   0.000650  -0.000014  -0.000611
  117  C 13  Z   -0.000464   0.000754   0.000923  -0.002593  -0.000597
  118  C 14  S    0.023827  -0.021583   0.030674  -0.029362  -0.198873
  119  C 14  S    0.000160  -0.000196   0.000280  -0.000225  -0.004844
  120  C 14  X   -0.000000   0.000000  -0.000000  -0.000000  -0.000000
  121  C 14  Y    0.000125  -0.000107   0.000120  -0.000050   0.000076
  122  C 14  Z   -0.000069   0.000083  -0.000053   0.000045  -0.000023
  123  C 14  S    0.002062  -0.001427   0.002007  -0.004410   0.002678
  124  C 14  X   -0.000000   0.000000  -0.000000  -0.000000  -0.000000
  125  C 14  Y   -0.001488   0.000589  -0.000896   0.000103  -0.000599
  126  C 14  Z    0.000316  -0.000386   0.000975  -0.002675   0.000333
  127  H 15  S   -0.000097   0.000030  -0.000084  -0.000032   0.000055
  128  H 15  S    0.000037  -0.000047   0.000174  -0.000608  -0.000370
  129  H 16  S   -0.000106  -0.000036   0.000069  -0.000033  -0.000179
  130  H 16  S    0.000045   0.000136  -0.000141  -0.000602   0.000972
  131  H 17  S   -0.000109  -0.000006  -0.000050  -0.000001  -0.000013
  132  H 17  S    0.000058   0.000003   0.000806   0.000018  -0.000018
  133  H 18  S   -0.000120  -0.000007   0.000035   0.000001  -0.000020
  134  H 18  S    0.000190   0.000011  -0.000801  -0.000017  -0.000069
  135  H 19  S   -0.000110   0.000024   0.000067   0.000036   0.000072
  136  H 19  S    0.000060  -0.000131  -0.000167   0.000595  -0.000374
  137  H 20  S   -0.000093  -0.000040  -0.000085   0.000028  -0.000142
  138  H 20  S    0.000031   0.000050   0.000147   0.000615   0.000907
  139  H 21  S   -0.000012  -0.000018   0.000021  -0.000030   0.000070
  140  H 21  S    0.000038  -0.000062   0.000152  -0.000303  -0.000520
  141  H 22  S   -0.000011   0.000020  -0.000022  -0.000028  -0.000166
  142  H 22  S    0.000048   0.000110  -0.000134  -0.000297   0.001062
  143  H 23  S   -0.000009  -0.000022  -0.000023   0.000027   0.000068
  144  H 23  S    0.000060  -0.000104  -0.000147   0.000291  -0.000468
  145  H 24  S   -0.000014   0.000016   0.000020   0.000031  -0.000172
  146  H 24  S    0.000031   0.000066   0.000138   0.000310   0.001174

                      6          7          8          9         10
                  -11.2418   -11.2415   -11.2415   -11.2404   -11.2404
                     A          A          A          A          A   
    1  C  1  S    0.196635   0.342231   0.566387  -0.459881  -0.129011
    2  C  1  S    0.004746   0.008580   0.014213  -0.012210  -0.003402
    3  C  1  X   -0.000000   0.000000   0.000000  -0.000000   0.000000
    4  C  1  Y    0.000048   0.000073   0.000071   0.000165   0.000026
    5  C  1  Z    0.000026   0.000152   0.000230  -0.000291  -0.000079
    6  C  1  S   -0.002507  -0.004541  -0.009735   0.012673   0.003070
    7  C  1  X   -0.000000   0.000000   0.000000  -0.000000   0.000000
    8  C  1  Y   -0.000193   0.000096  -0.000113  -0.000563  -0.000307
    9  C  1  Z   -0.000257  -0.000803  -0.002601   0.003250   0.000708
   10  C  2  S   -0.009083   0.013284   0.003264   0.006429   0.011451
   11  C  2  S   -0.000337   0.000069   0.000016   0.000160   0.000285
   12  C  2  X   -0.000000   0.000000   0.000000  -0.000000   0.000000
   13  C  2  Y   -0.000009   0.000013  -0.000052  -0.000013   0.000007
   14  C  2  Z   -0.000051   0.000032   0.000008   0.000012   0.000021
   15  C  2  S    0.001007   0.003591   0.000892   0.000002   0.000012
   16  C  2  X   -0.000000   0.000000   0.000000  -0.000000   0.000000
   17  C  2  Y    0.000333  -0.000303   0.001214  -0.000715   0.000401
   18  C  2  Z    0.000022  -0.003074  -0.000760   0.000112   0.000194
   19  C  3  S    0.233650  -0.316590  -0.525084  -0.428114  -0.120001
   20  C  3  S    0.005685  -0.007983  -0.013247  -0.011396  -0.003170
   21  C  3  X   -0.000000   0.000000   0.000000  -0.000000   0.000000
   22  C  3  Y    0.000056  -0.000061  -0.000047   0.000167   0.000028
   23  C  3  Z   -0.000043   0.000152   0.000232   0.000276   0.000074
   24  C  3  S   -0.003109   0.004344   0.009418   0.011947   0.002911
   25  C  3  X   -0.000000   0.000000   0.000000  -0.000000   0.000000
   26  C  3  Y   -0.000169  -0.000159  -0.000031  -0.000551  -0.000289
   27  C  3  Z    0.000392  -0.000817  -0.002617  -0.003019  -0.000658
   28  C  4  S   -0.003722  -0.006690  -0.001661   0.002383   0.004227
   29  C  4  S   -0.000230   0.000084   0.000020   0.000049   0.000087
   30  C  4  X   -0.000000   0.000000   0.000000  -0.000000   0.000000
   31  C  4  Y   -0.000007  -0.000013   0.000054  -0.000014   0.000008
   32  C  4  Z    0.000048   0.000040   0.000010  -0.000015  -0.000027
   33  C  4  S    0.001254  -0.003594  -0.000886   0.000166   0.000289
   34  C  4  X   -0.000000   0.000000   0.000000  -0.000000   0.000000
   35  C  4  Y    0.000285   0.000331  -0.001351  -0.000673   0.000380
   36  C  4  Z    0.000282  -0.003098  -0.000766  -0.000015  -0.000031
   37  C  5  S    0.181089   0.173475   0.286865   0.510037   0.143025
   38  C  5  S    0.004194   0.004144   0.006833   0.012929   0.003619
   39  C  5  X   -0.000000   0.000000   0.000000  -0.000000   0.000000
   40  C  5  Y    0.000015  -0.000017  -0.000007   0.000255   0.000078
   41  C  5  Z   -0.000030   0.000131   0.000201   0.000050   0.000004
   42  C  5  S   -0.000964  -0.000839  -0.000358  -0.009188  -0.002511
   43  C  5  X   -0.000000   0.000000   0.000000  -0.000000   0.000000
   44  C  5  Y    0.000243   0.000803   0.001803  -0.002664  -0.000682
   45  C  5  Z    0.000057  -0.000595  -0.000725   0.000658   0.000225
   46  C  6  S   -0.026843   0.030283  -0.019048  -0.006021   0.019691
   47  C  6  S   -0.001190   0.001442  -0.000801  -0.000242   0.000857
   48  C  6  X   -0.000000   0.000000   0.000000  -0.000000   0.000000
   49  C  6  Y   -0.000241   0.000077  -0.000055  -0.000044   0.000053
   50  C  6  Z    0.000028   0.000061  -0.000034  -0.000033   0.000022
   51  C  6  S    0.002740  -0.008639   0.002950   0.001689  -0.003658
   52  C  6  X   -0.000000   0.000000   0.000000  -0.000000   0.000000
   53  C  6  Y    0.001827   0.000565   0.002607   0.000683  -0.001624
   54  C  6  Z   -0.000108   0.002292  -0.001404   0.000565  -0.000894
   55  C  7  S    0.191446  -0.129384  -0.215033   0.514208   0.144383
   56  C  7  S    0.004424  -0.003097  -0.005120   0.012999   0.003643
   57  C  7  X   -0.000000   0.000000   0.000000  -0.000000   0.000000
   58  C  7  Y    0.000010   0.000026   0.000022   0.000250   0.000076
   59  C  7  Z    0.000017   0.000134   0.000205  -0.000058  -0.000006
   60  C  7  S   -0.000833   0.000460  -0.000296  -0.008850  -0.002426
   61  C  7  X   -0.000000   0.000000   0.000000  -0.000000   0.000000
   62  C  7  Y    0.000387  -0.000811  -0.001832  -0.002464  -0.000627
   63  C  7  Z   -0.000031  -0.000625  -0.000784  -0.000689  -0.000228
   64  C  8  S   -0.022999  -0.033082   0.020349  -0.006303   0.022041
   65  C  8  S   -0.000999  -0.001559   0.000852  -0.000251   0.000968
   66  C  8  X   -0.000000   0.000000   0.000000  -0.000000   0.000000
   67  C  8  Y   -0.000226  -0.000099   0.000070  -0.000047   0.000058
   68  C  8  Z   -0.000036   0.000057  -0.000032   0.000033  -0.000026
   69  C  8  S    0.001575   0.008803  -0.002961   0.001676  -0.004299
   70  C  8  X   -0.000000   0.000000   0.000000  -0.000000   0.000000
   71  C  8  Y    0.001705  -0.000461  -0.002725   0.000847  -0.001684
   72  C  8  Z   -0.000187   0.002306  -0.001431  -0.000561   0.000744
   73  C  9  S   -0.011743   0.017864   0.030867   0.019948   0.005100
   74  C  9  S   -0.000548   0.000900   0.001376   0.000858   0.000239
   75  C  9  X   -0.000000   0.000000   0.000000  -0.000000   0.000000
   76  C  9  Y    0.000099  -0.000042  -0.000083  -0.000069   0.000010
   77  C  9  Z    0.000021   0.000039   0.000059   0.000036  -0.000017
   78  C  9  S    0.001349  -0.006264  -0.006623  -0.003998  -0.000462
   79  C  9  X   -0.000000   0.000000   0.000000  -0.000000   0.000000
   80  C  9  Y   -0.000490  -0.001722   0.002033   0.001748   0.000260
   81  C  9  Z   -0.000080   0.001373   0.002308  -0.001060   0.000017
   82  C 10  S   -0.010059  -0.019836  -0.033485   0.022169   0.006102
   83  C 10  S   -0.000457  -0.000984  -0.001483   0.000960   0.000290
   84  C 10  X   -0.000000   0.000000   0.000000  -0.000000   0.000000
   85  C 10  Y    0.000092   0.000056   0.000109  -0.000074   0.000010
   86  C 10  Z   -0.000025   0.000035   0.000055  -0.000040   0.000015
   87  C 10  S    0.000665   0.006407   0.006719  -0.004554  -0.000805
   88  C 10  X   -0.000000   0.000000   0.000000  -0.000000   0.000000
   89  C 10  Y   -0.000622   0.001675  -0.002198   0.001878   0.000156
   90  C 10  Z   -0.000067   0.001374   0.002340   0.000924  -0.000093
   91  C 11  S    0.430154  -0.216824   0.131305  -0.144137   0.514119
   92  C 11  S    0.009967  -0.005175   0.003118  -0.003649   0.012992
   93  C 11  X   -0.000000   0.000000   0.000000  -0.000000   0.000000
   94  C 11  Y   -0.000031  -0.000033   0.000007   0.000065  -0.000253
   95  C 11  Z    0.000044   0.000214  -0.000119   0.000025  -0.000053
   96  C 11  S   -0.002049   0.000274   0.000473   0.002528  -0.008810
   97  C 11  X   -0.000000   0.000000   0.000000  -0.000000   0.000000
   98  C 11  Y   -0.000823   0.001576  -0.001247  -0.000745   0.002428
   99  C 11  Z   -0.000194  -0.000913   0.000400   0.000164  -0.000711
  100  C 12  S    0.409428   0.284324  -0.171340  -0.143506   0.511203
  101  C 12  S    0.009512   0.006782  -0.004075  -0.003643   0.012954
  102  C 12  X   -0.000000   0.000000   0.000000  -0.000000   0.000000
  103  C 12  Y   -0.000040   0.000019   0.000001   0.000066  -0.000259
  104  C 12  Z   -0.000068   0.000209  -0.000117  -0.000023   0.000045
  105  C 12  S   -0.002439  -0.000872  -0.000096   0.002640  -0.009169
  106  C 12  X   -0.000000   0.000000   0.000000  -0.000000   0.000000
  107  C 12  Y   -0.000474  -0.001556   0.001224  -0.000804   0.002631
  108  C 12  Z    0.000215  -0.000863   0.000364  -0.000149   0.000676
  109  C 13  S    0.523956  -0.526771   0.318370   0.120226  -0.428091
  110  C 13  S    0.012785  -0.013284   0.008033   0.003221  -0.011383
  111  C 13  X   -0.000000   0.000000   0.000000  -0.000000   0.000000
  112  C 13  Y   -0.000145   0.000077  -0.000013   0.000063  -0.000157
  113  C 13  Z   -0.000091   0.000243  -0.000135  -0.000081   0.000274
  114  C 13  S   -0.007307   0.008262  -0.006328  -0.003726   0.011713
  115  C 13  X   -0.000000   0.000000   0.000000  -0.000000   0.000000
  116  C 13  Y    0.000781   0.000150   0.000049  -0.000040   0.000622
  117  C 13  Z    0.001059  -0.001948   0.001939   0.001007  -0.002919
  118  C 14  S    0.447527   0.565379  -0.340985   0.128707  -0.458661
  119  C 14  S    0.010844   0.014184  -0.008563   0.003438  -0.012168
  120  C 14  X   -0.000000   0.000000   0.000000  -0.000000   0.000000
  121  C 14  Y   -0.000134  -0.000097   0.000028   0.000064  -0.000155
  122  C 14  Z    0.000056   0.000241  -0.000133   0.000084  -0.000289
  123  C 14  S   -0.005855  -0.008553   0.006498  -0.003969   0.012409
  124  C 14  X   -0.000000   0.000000   0.000000  -0.000000   0.000000
  125  C 14  Y    0.000803  -0.000038  -0.000142  -0.000031   0.000642
  126  C 14  Z   -0.000663  -0.001927   0.001931  -0.001087   0.003144
  127  H 15  S   -0.000153  -0.000242   0.000166  -0.000036   0.000121
  128  H 15  S    0.000949   0.000790  -0.000221   0.000082  -0.000453
  129  H 16  S   -0.000090   0.000127   0.000246   0.000107   0.000028
  130  H 16  S    0.000512  -0.000531  -0.000471  -0.000416  -0.000157
  131  H 17  S   -0.000035  -0.000159  -0.000039  -0.000018  -0.000032
  132  H 17  S   -0.000054  -0.001009  -0.000249   0.000036   0.000063
  133  H 18  S   -0.000050   0.000150   0.000037  -0.000023  -0.000041
  134  H 18  S   -0.000172   0.001006   0.000248   0.000016   0.000029
  135  H 19  S   -0.000186   0.000227  -0.000159  -0.000032   0.000106
  136  H 19  S    0.001030  -0.000693   0.000171   0.000082  -0.000437
  137  H 20  S   -0.000076  -0.000137  -0.000260   0.000123   0.000033
  138  H 20  S    0.000454   0.000599   0.000568  -0.000432  -0.000166
  139  H 21  S   -0.000178   0.000068  -0.000036   0.000061  -0.000195
  140  H 21  S    0.001169  -0.000617   0.000435  -0.000184   0.000724
  141  H 22  S   -0.000082  -0.000061  -0.000092  -0.000199  -0.000050
  142  H 22  S    0.000477   0.000443   0.000830   0.000668   0.000207
  143  H 23  S   -0.000173  -0.000096   0.000052   0.000061  -0.000196
  144  H 23  S    0.001070   0.000774  -0.000525  -0.000171   0.000680
  145  H 24  S   -0.000085   0.000043   0.000063  -0.000198  -0.000050
  146  H 24  S    0.000519  -0.000340  -0.000666   0.000713   0.000220

                     11         12         13         14         15
                  -11.2397   -11.2397   -11.2389   -11.2359    -1.1883
                     A          A          A          A          A   
    1  C  1  S    0.295578  -0.006345  -0.002052   0.004984  -0.048682
    2  C  1  S    0.008487  -0.000179  -0.000218   0.000162   0.095813
    3  C  1  X    0.000000  -0.000000  -0.000000   0.000000   0.000000
    4  C  1  Y   -0.000061  -0.000001   0.000016  -0.000006   0.013534
    5  C  1  Z    0.000205  -0.000008  -0.000013   0.000050   0.031303
    6  C  1  S   -0.018721   0.000180   0.000871   0.000162   0.056907
    7  C  1  X    0.000000  -0.000000  -0.000000   0.000000   0.000000
    8  C  1  Y    0.000664   0.000244  -0.000503   0.000382   0.008477
    9  C  1  Z   -0.007570  -0.000154   0.001181  -0.000485   0.002512
   10  C  2  S    0.012638   0.012121   0.993385   0.003144  -0.069661
   11  C  2  S    0.000322   0.000309   0.025596  -0.000084   0.136591
   12  C  2  X    0.000000  -0.000000  -0.000000   0.000000   0.000000
   13  C  2  Y    0.000055  -0.000058   0.000000  -0.000000   0.000001
   14  C  2  Z    0.000020   0.000019  -0.000450   0.000041  -0.043755
   15  C  2  S   -0.003367  -0.003227  -0.023261   0.001296   0.092826
   16  C  2  X    0.000000  -0.000000  -0.000000   0.000000   0.000000
   17  C  2  Y   -0.000562   0.000587   0.000000   0.000000  -0.000001
   18  C  2  Z    0.001329   0.001274   0.006635  -0.001586  -0.007242
   19  C  3  S   -0.290665   0.006486   0.015145  -0.000437  -0.048758
   20  C  3  S   -0.008382   0.000182   0.000440  -0.000169   0.095989
   21  C  3  X    0.000000  -0.000000  -0.000000   0.000000   0.000000
[...]
   13             0.060566   0.101540   0.113267   0.175800   0.118712
   14             0.061777   0.095481   0.112936   0.176058   0.119109
   15             0.027851   0.000000   0.000389   0.000000   0.095709
   16             0.027441   0.000000   0.000359   0.000000   0.095548
   17             0.095743   0.000000   0.003023   0.000000   0.000000
   18             0.093037   0.000000   0.002875   0.000000   0.000000
   19             0.027441   0.000000   0.000359   0.000000   0.095553
   20             0.027854   0.000000   0.000389   0.000000   0.095709
   21             0.044259   0.000000   0.120643   0.000000   0.036541
   22             0.043210   0.000000   0.121440   0.000000   0.037190
   23             0.043210   0.000000   0.121443   0.000000   0.037191
   24             0.044261   0.000000   0.120642   0.000000   0.036540

                     41         42         43         44         45

                  2.000000   2.000000   2.000000   2.000000   2.000000

    1             0.130222   0.078316   0.089295   0.306201   0.325506
    2             0.146047   0.115198   0.183075   0.001238   0.000000
    3             0.130200   0.078450   0.043541   0.341608   0.325550
    4             0.147560   0.116384   0.078844   0.019401  -0.000000
    5             0.102190   0.050639   0.316165   0.088615   0.107192
    6             0.131378   0.181113   0.099321   0.032509   0.065566
    7             0.101975   0.050642   0.271311   0.152634   0.109081
    8             0.131965   0.181117   0.049402   0.068101   0.067116
    9             0.131380   0.181119   0.099323   0.032508   0.065568
   10             0.131968   0.181122   0.049402   0.068100   0.067119
   11             0.101975   0.050641   0.271309   0.152637   0.109077
   12             0.102189   0.050638   0.316172   0.088620   0.107191
   13             0.130198   0.078449   0.043542   0.341624   0.325547
   14             0.130221   0.078311   0.089297   0.306204   0.325488
   15             0.000430   0.063104   0.000000   0.000000   0.000000
   16             0.000523   0.063138   0.000000   0.000000   0.000000
   17             0.000000   0.110411   0.000000   0.000000   0.000000
   18            -0.000000   0.109324   0.000000   0.000000   0.000000
   19             0.000523   0.063137   0.000000   0.000000   0.000000
   20             0.000430   0.063107   0.000000   0.000000   0.000000
   21             0.062366   0.013929   0.000000   0.000000   0.000000
   22             0.061946   0.013891   0.000000   0.000000   0.000000
   23             0.061947   0.013891   0.000000   0.000000   0.000000
   24             0.062368   0.013929   0.000000   0.000000   0.000000

                     46         47         48

                  2.000000   1.927371   0.072629

    1            -0.000187   0.009899   0.000475
    2            -0.000000   0.578582   0.022378
    3            -0.000193   0.013658   0.000560
    4             0.000000   0.763634   0.029170
    5             0.200799   0.033785   0.001305
    6             0.301339   0.072134   0.002666
    7             0.199093   0.018841   0.000715
    8             0.299146   0.144261   0.004819
    9             0.301345   0.072131   0.002667
   10             0.299145   0.144261   0.004818
   11             0.199091   0.018841   0.000715
   12             0.200800   0.033786   0.001305
   13            -0.000193   0.013659   0.000560
   14            -0.000187   0.009898   0.000475
   15             0.000000   0.000000   0.000000
   16             0.000000   0.000000   0.000000
   17             0.000000   0.000000   0.000000
   18             0.000000   0.000000   0.000000
   19             0.000000   0.000000   0.000000
   20             0.000000   0.000000   0.000000
   21             0.000000   0.000000   0.000000
   22             0.000000   0.000000   0.000000
   23             0.000000   0.000000   0.000000
   24             0.000000   0.000000   0.000000
 WARNING! MCSCF POPULATIONS SHOWN ABOVE ARE FOR THE NATURAL ORBITALS.
 IGNORE THE ABOVE DATA FOR MCSCF FUNCTIONS WHICH ARE NOT OF -FORS- TYPE.
 THE FOLLOWING POPULATIONS ARE CORRECT FOR ANY MCSCF WAVEFUNCTION.

               ----- POPULATIONS IN EACH AO -----
                             MULLIKEN      LOWDIN
              1  C  1  S      1.99775     1.98907
              2  C  1  S      0.69921     0.55070
              3  C  1  X      0.52626     0.49206
              4  C  1  Y      0.75641     0.70487
              5  C  1  Z      0.73342     0.66707
              6  C  1  S      0.43370     0.39517
              7  C  1  X      0.47647     0.51219
              8  C  1  Y      0.15556     0.36401
              9  C  1  Z      0.38179     0.43483
             10  C  2  S      1.99775     1.98889
             11  C  2  S      0.70040     0.55101
             12  C  2  X      0.54019     0.50913
             13  C  2  Y      0.75731     0.70574
             14  C  2  Z      0.72806     0.66264
             15  C  2  S      0.39611     0.38967
             16  C  2  X      0.46573     0.50248
             17  C  2  Y      0.17448     0.35547
             18  C  2  Z      0.41122     0.43651
             19  C  3  S      1.99775     1.98907
             20  C  3  S      0.69931     0.55076
             21  C  3  X      0.52603     0.49188
             22  C  3  Y      0.75649     0.70493
             23  C  3  Z      0.73349     0.66713
             24  C  3  S      0.43363     0.39516
             25  C  3  X      0.47603     0.51179
             26  C  3  Y      0.15551     0.36399
             27  C  3  Z      0.38179     0.43482
             28  C  4  S      1.99774     1.98887
             29  C  4  S      0.69954     0.55044
             30  C  4  X      0.54998     0.51774
             31  C  4  Y      0.75573     0.70451
             32  C  4  Z      0.72643     0.66131
             33  C  4  S      0.39556     0.38961
             34  C  4  X      0.45543     0.49454
             35  C  4  Y      0.17434     0.35556
             36  C  4  Z      0.41121     0.43686
             37  C  5  S      1.99776     1.98917
             38  C  5  S      0.69623     0.54940
             39  C  5  X      0.52266     0.48739
             40  C  5  Y      0.75093     0.68732
             41  C  5  Z      0.74271     0.68782
             42  C  5  S      0.49216     0.40006
             43  C  5  X      0.48108     0.51624
             44  C  5  Y      0.32383     0.41729
             45  C  5  Z      0.20439     0.38991
             46  C  6  S      1.99778     1.98816
             47  C  6  S      0.69998     0.53988
             48  C  6  X      0.52986     0.48718
             49  C  6  Y      0.75983     0.70464
             50  C  6  Z      0.74144     0.69187
             51  C  6  S      0.43112     0.36449
             52  C  6  X      0.46144     0.49972
             53  C  6  Y      0.28297     0.37163
             54  C  6  Z      0.15976     0.37729
             55  C  7  S      1.99776     1.98917
             56  C  7  S      0.69616     0.54935
             57  C  7  X      0.52288     0.48756
             58  C  7  Y      0.75087     0.68727
             59  C  7  Z      0.74264     0.68775
             60  C  7  S      0.49213     0.40006
             61  C  7  X      0.48132     0.51649
             62  C  7  Y      0.32386     0.41730
             63  C  7  Z      0.20433     0.38989
             64  C  8  S      1.99778     1.98816
             65  C  8  S      0.70015     0.54002
             66  C  8  X      0.52923     0.48687
             67  C  8  Y      0.76025     0.70503
             68  C  8  Z      0.74152     0.69194
             69  C  8  S      0.43147     0.36454
             70  C  8  X      0.46106     0.49869
             71  C  8  Y      0.28358     0.37174
             72  C  8  Z      0.15995     0.37732
             73  C  9  S      1.99778     1.98816
             74  C  9  S      0.69998     0.53988
             75  C  9  X      0.52986     0.48718
             76  C  9  Y      0.75983     0.70464
             77  C  9  Z      0.74144     0.69187
             78  C  9  S      0.43112     0.36449
             79  C  9  X      0.46145     0.49972
             80  C  9  Y      0.28296     0.37163
             81  C  9  Z      0.15975     0.37729
             82  C 10  S      1.99778     1.98816
             83  C 10  S      0.70015     0.54002
             84  C 10  X      0.52923     0.48687
             85  C 10  Y      0.76025     0.70503
             86  C 10  Z      0.74152     0.69194
             87  C 10  S      0.43146     0.36454
             88  C 10  X      0.46106     0.49869
             89  C 10  Y      0.28359     0.37174
             90  C 10  Z      0.15995     0.37732
             91  C 11  S      1.99776     1.98917
             92  C 11  S      0.69617     0.54935
             93  C 11  X      0.52287     0.48756
             94  C 11  Y      0.75087     0.68727
             95  C 11  Z      0.74264     0.68776
             96  C 11  S      0.49213     0.40006
             97  C 11  X      0.48131     0.51649
             98  C 11  Y      0.32386     0.41730
             99  C 11  Z      0.20434     0.38989
            100  C 12  S      1.99776     1.98917
            101  C 12  S      0.69623     0.54940
            102  C 12  X      0.52267     0.48739
            103  C 12  Y      0.75093     0.68732
            104  C 12  Z      0.74271     0.68782
            105  C 12  S      0.49215     0.40006
            106  C 12  X      0.48109     0.51625
            107  C 12  Y      0.32383     0.41729
            108  C 12  Z      0.20439     0.38991
            109  C 13  S      1.99775     1.98907
            110  C 13  S      0.69930     0.55076
            111  C 13  X      0.52604     0.49189
            112  C 13  Y      0.75649     0.70493
            113  C 13  Z      0.73349     0.66713
            114  C 13  S      0.43363     0.39516
            115  C 13  X      0.47604     0.51180
            116  C 13  Y      0.15551     0.36399
            117  C 13  Z      0.38179     0.43482
            118  C 14  S      1.99775     1.98907
            119  C 14  S      0.69921     0.55070
            120  C 14  X      0.52625     0.49205
            121  C 14  Y      0.75641     0.70487
            122  C 14  Z      0.73342     0.66707
            123  C 14  S      0.43370     0.39517
            124  C 14  X      0.47646     0.51218
            125  C 14  Y      0.15556     0.36401
            126  C 14  Z      0.38180     0.43483
            127  H 15  S      0.53532     0.51445
            128  H 15  S      0.25438     0.36184
            129  H 16  S      0.53532     0.51444
            130  H 16  S      0.25433     0.36182
            131  H 17  S      0.53476     0.51436
            132  H 17  S      0.24849     0.36391
            133  H 18  S      0.53455     0.51411
            134  H 18  S      0.24747     0.36328
            135  H 19  S      0.53532     0.51444
            136  H 19  S      0.25433     0.36182
            137  H 20  S      0.53532     0.51445
            138  H 20  S      0.25438     0.36185
            139  H 21  S      0.53608     0.51486
            140  H 21  S      0.26189     0.36066
            141  H 22  S      0.53608     0.51486
            142  H 22  S      0.26187     0.36065
            143  H 23  S      0.53608     0.51486
            144  H 23  S      0.26187     0.36065
            145  H 24  S      0.53608     0.51486
            146  H 24  S      0.26190     0.36066

          ----- MULLIKEN ATOMIC OVERLAP POPULATIONS -----
          (OFF-DIAGONAL ELEMENTS NEED TO BE MULTIPLIED BY 2)

             1           2           3           4           5

    1    4.9612785
    2    0.0079131   5.0420435
    3   -0.0413450  -0.0289218   4.9617598
    4   -0.0287246  -0.0666502   0.0079130   5.0444047
    5    0.5623310  -0.0003121  -0.0572136   0.0034908   4.9999235
    6   -0.0002907   0.4590991   0.0036499  -0.0285758   0.0000804
    7   -0.0571824   0.0034760   0.5628792  -0.0003136   0.4497479
    8    0.0036734  -0.0289027  -0.0002894   0.4545233  -0.0003350
    9   -0.0269209   0.4590934   0.4219212  -0.0285748  -0.0249792
   10    0.4232503  -0.0289020  -0.0269159   0.4545230  -0.0514833
   11    0.0000003   0.0034760   0.0000014  -0.0003136  -0.0000000
   12    0.0000013  -0.0003121   0.0000003   0.0034908   0.0000000
   13   -0.0000148  -0.0289225  -0.0000767   0.0079131   0.0000003
   14   -0.0000768   0.0079131  -0.0000148  -0.0287249   0.0000013
   15    0.0000016  -0.0001433  -0.0000000   0.0033509   0.0000000
   16    0.0003007   0.0033435   0.3713123  -0.0001434   0.0020151
   17    0.0033302   0.0006516  -0.0001685   0.3647244   0.0001502
   18   -0.0001682   0.3643329   0.0033403   0.0006503   0.0000221
   19   -0.0000000   0.0033433   0.0000016  -0.0001434   0.0000000
   20    0.3713167  -0.0001434   0.0003011   0.0033509  -0.0191329
   21    0.0000000  -0.0001050  -0.0000000  -0.0000036  -0.0000000
   22   -0.0204153  -0.0000036   0.0023109  -0.0001050   0.3718366
   23   -0.0000000  -0.0000036   0.0000000  -0.0001050   0.0000000
   24    0.0023104  -0.0001050  -0.0204046  -0.0000036  -0.0243906

             6           7           8           9          10

    6    4.9658070
    7   -0.0003339   4.9994304
    8    0.4699394   0.0000801   4.9701474
    9   -0.0461584  -0.0513820  -0.0219366   4.9658080
   10   -0.0219367  -0.0250037  -0.0459133   0.4699367   4.9701442
   11   -0.0513783   0.0000000  -0.0250051  -0.0003339   0.0000801
   12   -0.0249804  -0.0000000  -0.0514820   0.0000804  -0.0003350
   13    0.4219161   0.0000014  -0.0269146   0.0036500  -0.0002894
   14   -0.0269204   0.0000003   0.4232473  -0.0002907   0.0036734
   15    0.0012594   0.0000000  -0.0342269   0.0000117   0.0001676
   16    0.0001675  -0.0191031   0.0000117  -0.0342451   0.0012610
   17    0.0010435   0.0000221  -0.0262976   0.0010435  -0.0262972
   18   -0.0261722   0.0001497   0.0010367  -0.0261747   0.0010367
   19   -0.0342446   0.0000000   0.0012610   0.0001675   0.0000117
   20    0.0000117   0.0020143   0.0001676   0.0012594  -0.0342268
   21    0.0019413   0.0000000   0.0002560   0.0000019   0.0000000
   22    0.0000000  -0.0243835   0.0000019   0.0002560   0.0019434
   23    0.0002560  -0.0000000   0.0019435   0.0000000   0.0000019
   24    0.0000019   0.3718501   0.0000000   0.0019415   0.0002559

            11          12          13          14          15

   11    4.9994250
   12    0.4497481   4.9999241
   13    0.5628816  -0.0572122   4.9617611
   14   -0.0571819   0.5623326  -0.0413457   4.9612773
   15    0.0020143  -0.0191326   0.0003011   0.3713162   0.4622967
   16    0.0000000   0.0000000   0.0000016  -0.0000000   0.0000000
   17    0.0000221   0.0001502  -0.0001685   0.0033303   0.0027278
   18    0.0001497   0.0000221   0.0033400  -0.0001682   0.0000011
   19   -0.0191025   0.0020150   0.3713130   0.0003007   0.0000095
   20    0.0000000   0.0000000  -0.0000000   0.0000016   0.0000015
   21    0.3718500  -0.0243910  -0.0204036   0.0023105  -0.0001071
   22   -0.0000000   0.0000000   0.0000000  -0.0000000   0.0000000
   23   -0.0243837   0.3718372   0.0023110  -0.0204160  -0.0001513
   24    0.0000000  -0.0000000  -0.0000000   0.0000000  -0.0000000

            16          17          18          19          20

   16    0.4622531
   17    0.0000011   0.4562583
   18    0.0027222   0.0000142   0.4551748
   19    0.0000015   0.0000011   0.0027222   0.4622521
   20    0.0000095   0.0027278   0.0000011   0.0000000   0.4622991
   21    0.0000000  -0.0000000  -0.0000056  -0.0001531  -0.0000000
   22   -0.0001070  -0.0000056  -0.0000000  -0.0000000  -0.0001513
   23   -0.0000000  -0.0000056  -0.0000000  -0.0001070   0.0000000
   24   -0.0001530  -0.0000000  -0.0000056   0.0000000  -0.0001071

            21          22          23          24

   21    0.4668193
   22    0.0000000   0.4668096
   23   -0.0000346  -0.0000000   0.4668113
   24   -0.0000000  -0.0000345   0.0000000   0.4668226

          TOTAL MULLIKEN AND LOWDIN ATOMIC POPULATIONS
       ATOM         MULL.POP.    CHARGE          LOW.POP.     CHARGE
    1 C             6.160569   -0.160569         6.109960   -0.109960
    2 C             6.171258   -0.171258         6.101535   -0.101535
    3 C             6.160041   -0.160041         6.109521   -0.109521
    4 C             6.165954   -0.165954         6.099431   -0.099431
    5 C             6.211753   -0.211753         6.124602   -0.124602
    6 C             6.064182   -0.064182         6.024855   -0.024855
    7 C             6.211949   -0.211949         6.124860   -0.124860
    8 C             6.064986   -0.064986         6.024307   -0.024307
    9 C             6.064175   -0.064175         6.024859   -0.024859
   10 C             6.064983   -0.064983         6.024307   -0.024307
   11 C             6.211949   -0.211949         6.124856   -0.124856
   12 C             6.211757   -0.211757         6.124610   -0.124610
   13 C             6.160042   -0.160042         6.109529   -0.109529
   14 C             6.160566   -0.160566         6.109952   -0.109952
   15 H             0.789698    0.210302         0.876296    0.123704
   16 H             0.789649    0.210351         0.876256    0.123744
   17 H             0.783255    0.216745         0.878273    0.121727
   18 H             0.782021    0.217979         0.877398    0.122602
   19 H             0.789650    0.210350         0.876257    0.123743
   20 H             0.789701    0.210299         0.876296    0.123704
   21 H             0.797976    0.202024         0.875513    0.124487
   22 H             0.797953    0.202047         0.875508    0.124492
   23 H             0.797954    0.202046         0.875508    0.124492
   24 H             0.797979    0.202021         0.875514    0.124486

          ---------------------
          ELECTROSTATIC MOMENTS
          ---------------------

 POINT   1           X           Y           Z (BOHR)    CHARGE
                 0.000000   -0.000000    0.000000       -0.00 (A.U.)
         DX          DY          DZ         /D/  (DEBYE)
     0.000000   -0.000002   -0.003651    0.003651
 ...... END OF PROPERTY EVALUATION ......
 STEP CPU TIME =     0.02 TOTAL CPU TIME =         10.0 (      0.2 MIN)
 TOTAL WALL CLOCK TIME=         10.0 SECONDS, CPU UTILIZATION IS    99.92%
               937334  WORDS OF DYNAMIC MEMORY USED
 EXECUTION OF GAMESS TERMINATED NORMALLY 10:33:31 06-MAY-2024    
 DDI: 263640 bytes (0.3 MB / 0 MWords) used by master data server.

 ----------------------------------------
 CPU timing information for all processes
 ========================================
 0: 8.353 + 1.619 = 9.972
 ----------------------------------------
 ddikick.x: exited gracefully.
----- accounting info -----
Files used on the master node vista were:
-rw-r--r-- 1 humbel users    116009 May  6 10:33 /scratch/humbel.257402/AAntr_CSF.F05
-rw-r--r-- 1 humbel users 214759088 May  6 10:33 /scratch/humbel.257402/AAntr_CSF.F08
-rw-r--r-- 1 humbel users    265872 May  6 10:33 /scratch/humbel.257402/AAntr_CSF.F09
-rw-r--r-- 1 humbel users   4155440 May  6 10:33 /scratch/humbel.257402/AAntr_CSF.F10
-rw-r--r-- 1 humbel users    275200 May  6 10:33 /scratch/humbel.257402/AAntr_CSF.F11
-rw-r--r-- 1 humbel users       248 May  6 10:33 /scratch/humbel.257402/AAntr_CSF.F12
-rw-r--r-- 1 humbel users    180016 May  6 10:33 /scratch/humbel.257402/AAntr_CSF.F13
-rw-r--r-- 1 humbel users    400008 May  6 10:33 /scratch/humbel.257402/AAntr_CSF.F14
-rw-r--r-- 1 humbel users    189432 May  6 10:33 /scratch/humbel.257402/AAntr_CSF.F15
-rw-r--r-- 1 humbel users    189432 May  6 10:33 /scratch/humbel.257402/AAntr_CSF.F16
-rw-r--r-- 1 humbel users    921024 May  6 10:33 /scratch/humbel.257402/AAntr_CSF.F23
Mon May  6 10:33:34 AM CEST 2024
0.0u 0.0s 0:13.13 0.7% 0+0k 232+664io 0pf+0w
