----- GAMESS execution script 'rungms' -----
This job is running on host vista
under operating system Linux at Mon May 6 10:34:29 AM CEST 2024
Available scratch disk space (Kbyte units) at beginning of the job is
Filesystem                   1K-blocks     Used Available Use% Mounted on
/dev/mapper/vg--ctom-scratch 868492972 79856656 788636316  10% /scratch
GAMESS temporary binary files will be written to /scratch/humbel.257403
GAMESS supplementary output files will be written to /home/humbel/di-barrois/di-antracene/di-proj
Copying input file ./AAntr_CSF.inp to your run's scratch directory...

 Distributed Data Interface kickoff program.
 Initiating 1 compute processes on 1 nodes to run the following command:
 /home/humbel/fuming/softwares/gamess/2020-R2/gamess.xmvb.x AAntr_CSF 

          *******************************************************
          *                                                     *
          *          GAMESS VERSION = 30 SEP 2020 (R2)          *
          *                                                     *
          *              doi.org/10.1063/5.0005188              *
          *                                                     *
          **************** 64 BIT LINUX VERSION *****************

  GAMESS HAS BEEN MADE POSSIBLE WITH IMPORTANT CONTRIBUTIONS FROM
  THE FOLLOWING INDIVIDUALS (IN ALPHABETICAL ORDER):

     IVANA ADAMOVIC, CHRISTINE AIKENS, TOMOKO AKAMA,
     YURI ALEXEEV, YURIKO AOKI, POOJA ARORA, TOSHIO ASADA,
     ANDREY ASADCHEV, KIM K. BALDRIDGE, PRADIPTA BANDYOPADHYAY,
     MARIA BARYSZ, ROB BELL, JONATHAN BENTZ, COLLEEN BERTONI,
     JERRY A. BOATZ, BRETT BODE, KURT BRORSEN, KURT R. BRORSEN,
     LAIMUTIS BYTAUTAS, CALEB CARLIN, LAURA CARRINGTON,
     GALINA CHABAN, BENOIT CHAMPAGNE, WEI CHEN, MAHITO CHIBA,
     DAN CHIPMAN, CHEOL HO CHOI, TANNER CULPITT,
     DIPAYAN DATTA, PAUL DAY, ALBERT DEFUSCO,
     NUWAN DESILVA, J. EMILIANO DEUSTUA,
     TIM DUDLEY, MICHEL DUPUIS, STEVEN T. ELBERT,
     DMITRI FEDOROV, ALEX FINDLATER, GRAHAM FLETCHER,
     MARK FREITAG, CHRISTIAN FRIEDL, DAVID GARMER,
     IGOR S. GERASIMOV, KURT GLAESEMANN, MARK S. GORDON,
     JEFFREY GOUR, FENG LONG GU, EMILIE B. GUIDEZ,
     ANASTASIA GUNINA, SHARON HAMMES-SCHIFFER, MASATAKE HARUTA,
     KIMIHIKO HIRAO, YASUHIRO IKABATA, TZVETELIN IORDANOV,
     STEPHAN IRLE, KAZUYA ISHIMURA, JOE IVANIC, FRANK JENSEN,
     JAN H. JENSEN, VISVALDAS KAIRYS, MUNEAKI KAMIYA,
     MICHIO KATOUDA, NAOAKI KAWAKAMI, DAN KEMP, BERNARD KIRTMAN,
     KAZUO KITAURA, MARIUSZ KLOBUKOWSKI, MASATO KOBAYASHI,
     PRAKASHAN KORAMBATH, JACEK KORCHOWIEC, SHIRO KOSEKI,
     KAROL KOWALSKI, JIMMY KROMANN, STANISLAW KUCHARSKI,
     HENRY KURTZ, SAROM SOK LEANG, HUI LI, SHUHUA LI, WEI LI,
     JESSE LUTZ, ALEKSANDR O. LYKHIN, MARCIN MAKOWSKI,
     JOANI MATO, NIKITA MATSUNAGA, BENEDETTA MENNUCCI,
     GRANT MERRILL, NORIYUKI MINEZAWA, VLADIMIR MIRONOV,
     EISAKU MIYOSHI, JOHN A. MONTGOMERY JR., HIROTOSHI MORI,
     JONATHAN MULLIN, MONIKA MUSIAL, SHIGERU NAGASE,
     TAKESHI NAGATA, HIROMI NAKAI, TAKAHITO NAKAJIMA,
     YUYA NAKAJIMA, HARUYUKI NAKANO, HIROYA NAKATA, SEAN NEDD,
     HEATHER NETZLOFF, KIET A. NGUYEN, YOSHIO NISHIMOTO,
     BOSILJKA NJEGIC, RYAN OLSON, MIKE PAK, ROBERTO PEVERATI,
     BUU PHAM, PIOTR PIECUCH, ANNA POMOGAEVA, DAVID POOLE,
     SPENCER PRUITT, OLIVIER QUINET, LUKE ROSKOP,
     KLAUS RUEDENBERG, ANDREW SAND, TOSAPORN SATTASATHUCHANA,
     NOZOMI SAWADA, MICHAEL W. SCHMIDT, PATRICK E. SCHNEIDER,
     JUNJI SEINO, PRACHI SHARMA, JUN SHEN, JIM SHOEMAKER,
     YINAN SHU, DEJUN SI, JONATHAN SKONE, LYUDMILA SLIPCHENKO,
     TONY SMITH, JIE SONG, MARK SPACKMAN, CASPER STEINMANN,
     WALT STEVENS, PEIFENG SU, SHUJUN SU, CHET SWALINA,
     TETSUYA TAKETSUGU, ZHEN TAO, NANDUN THELLAMUREGE
     SEIKEN TOKURA, JACOPO TOMASI, TSUGUKI TOUMA, TAKAO TSUNEDA,
     HIROAKI UMEDA, JORGE LUIS GALVEZ VALLEJO, YALI WANG,
     SIMON WEBB, AARON WEST, THERESA L. WINDUS, MARTA WLOCH,
     PENG XU, KIYOSHI YAGI, SUSUMU YANAGISAWA, YANG YANG,
     SOOHAENG YOO, TAKESHI YOSHIKAWA, FEDERICO ZAHARIEV,
     TOBY ZENG

  WHO ARE SUPPORTED BY THEIR INSTITUTION/UNIVERSITY/COMPANY/GROUP
  (IN ALPHABETICAL ORDER):

     EP ANALYTICS, FACULTES UNIVERSITAIRES NOTRE-DAME DE LA PAIX,
     INSTITUTE FOR MOLECULAR SCIENCE, IOWA STATE UNIVERSITY,
     JACKSON STATE UNIVERSITY, JOHANNES KEPLER UNIVERSITY LINZ,
     KYUSHU UNIVERSITY, MICHIGAN STATE UNIVERSITY,
     MIE UNIVERSITY, MOSCOW STATE UNIVERSITY,
     N. COPERNICUS UNIVERSITY, NAGOYA UNIVERSITY,
     NANJING UNIVERSITY, NAT. INST. OF ADVANCED INDUSTRIAL
     SCIENCE AND TECHNOLOGY, NATIONAL INST. OF STANDARDS AND
     TECHNOLOGY, NESMEYANOV INSTITUTE OF ORGANOELEMENT COMPOUNDS
     OF RUSSIAN ACADEMY OF SCIENCES, OSAKA PREFECTURE UNIVERSITY,
     PENNSYLVANIA STATE UNIVERSITY, TOKYO INSTITUTE OF TECHNOLOGY,
     UNIVERSITY OF AARHUS, UNIVERSITY OF ALBERTA,
     UNIVERSITY OF CALIFORNIA AT SANTA BARBARA,
     UNIVERSITY OF COPENHAGEN, UNIVERSITY OF IOWA,
     UNIVERSITY OF MEMPHIS, UNIVERSITY OF MINNESOTA,
     UNIVERSITY OF NEBRASKA, UNIVERSITY OF NEW ENGLAND,
     UNIVERSITY OF NOTRE DAME, UNIVERSITY OF PISA,
     UNIVERSITY OF SILESIA, UNIVERSITY OF TOKYO,
     UNIVERSITY OF ZURICH, WASEDA UNIVERSITY, YALE UNIVERSITY

  GAMESS SOFTWARE MANAGEMENT TEAM FOR THIS RELEASE:
     MARK S. GORDON (TEAM LEAD),
     BRETT BODE (SENIOR ADVISOR),
     GIUSEPPE BARCA,
     COLLEEN BERTONI,
     KRISTOPHER KEIPERT (ADVISOR),
     SAROM S. LEANG (DEVELOPMENT LEAD),
     BUU PHAM,
     JORGE LUIS GALVEZ VALLEJO (WEBSITE ADMINISTRATOR),
     PENG XU

 EXECUTION OF GAMESS BEGUN 10:34:29 06-MAY-2024    

            ECHO OF THE FIRST FEW INPUT CARDS -
 INPUT CARD>!   File created by MacMolPlt 7.7.2                                             
 INPUT CARD>! $CONTRL SCFTYP=RHF RUNTYP=ENERGY MAXIT=200 MULT=1 $END                        
 INPUT CARD>! $CONTRL SCFTYP=MCSCF RUNTYP=ENERGY MAXIT=200 MULT=1 $END                      
 INPUT CARD> $CONTRL   SCFTYP=MCSCF RUNTYP=ENERGY  $END                                     
 INPUT CARD> $CONTRL   MAXIT=90  MULT=1  $END                                               
 INPUT CARD> $CONTRL   VBTYP=NONE  $END                                                     
 INPUT CARD>! $CONTRL  VBTYP=XMVB  $END                                                     
 INPUT CARD> $CONTRL  COORD=UNIQUE                 $END                                     
 INPUT CARD> $MCSCF CISTEP=GUGA $END                                                        
 INPUT CARD> $DRT    GROUP=C1  FORS=.TRUE. NMCC=46 NDOC=1 NVAL=1 $END                       
 INPUT CARD> $GUGDIA NSTATE=2 $END                                                          
 INPUT CARD> $GUGDM2 WSTATE(1)=1.0,0.0 $END                                                 
 INPUT CARD> $SYSTEM TIMLIM=525600 MEMORY=1000000 $END                                      
 INPUT CARD> $BASIS GBASIS=N31 NGAUSS=6 $END                                                
 INPUT CARD> $GUESS GUESS=MOREAD                                                            
 INPUT CARD> NORB=48                                                                        
 INPUT CARD> $END                                                                           
 INPUT CARD>! $MOFRZ FRZ=.T.                                                                
 INPUT CARD>! IFRZ(1)=1,2,3,4,5,6,7,8,9,10,11,12,13,14,15,16,17,18,19,20,21,22,23           
 INPUT CARD>! IFRZ(24)=24,25,26,27,28,29,30,31,32,33,34,35,36,37,38,39,40                   
 INPUT CARD>! $END                                                                          
 INPUT CARD>! $DET                                                                          
 INPUT CARD>! PRTTOL=0.  NCORE=46  NACT=2 NELS=2 ISTSYM=1                                   
 INPUT CARD>!! PRTTOL=0.  NCORE=7  NACT=2 NELS=2 ISTSYM=6                                   
 INPUT CARD>!!                                 D2h Ag B1g B2g B3g Au B1u B2u B3u            
 INPUT CARD>!                              ISTSYM  1  2   3   4   5   6   7   8             
 INPUT CARD>! NSTATE=2                                                                      
 INPUT CARD>! WSTATE(1)=1.0,0.0                                                             
 INPUT CARD>! PURES=.true. SZ=0                                                             
 INPUT CARD>! $END                                                                          
 INPUT CARD> $SCF DIRSCF=.TRUE. $END                                                        
 INPUT CARD> $DATA                                                                          
 INPUT CARD>anthracene opt C2H gaussian                                                     
 INPUT CARD>C1                                                                              
 INPUT CARD>C  6.0     0.00000    -2.47682     -1.40470                                     
 INPUT CARD>C  6.0    -0.00000    -0.00000      1.40119                                     
 INPUT CARD>C  6.0     0.00000    -2.47682      1.40470                                     
 INPUT CARD>C  6.0     0.00000     0.00000     -1.40119                                     
 INPUT CARD>C  6.0     0.00000    -3.65503     -0.71227                                     
 INPUT CARD>C  6.0    -0.00000     1.22202      0.72155                                     
 INPUT CARD>C  6.0     0.00000    -3.65503      0.71227                                     
 INPUT CARD>C  6.0    -0.00000     1.22202     -0.72155                                     
 INPUT CARD>C  6.0    -0.00000    -1.22202      0.72155                                     
 INPUT CARD>C  6.0     0.00000    -1.22202     -0.72155                                     
 INPUT CARD>C  6.0    -0.00000     3.65503      0.71227                                     
 INPUT CARD>C  6.0     0.00000     3.65503     -0.71227                                     
 INPUT CARD>C  6.0    -0.00000     2.47682      1.40470                                     
 INPUT CARD>C  6.0     0.00000     2.47682     -1.40470                                     
 INPUT CARD>H  1.0     0.00000     2.47711     -2.49085                                     
 INPUT CARD>H  1.0     0.00000    -2.47711      2.49085                                     
    1000000 WORDS OF MEMORY AVAILABLE

     BASIS OPTIONS
     -------------
     GBASIS=N31          IGAUSS=       6      POLAR=NONE    
     NDFUNC=       0     NFFUNC=       0     DIFFSP=       F
     NPFUNC=       0      DIFFS=       F     BASNAM=        


     RUN TITLE
     ---------
 anthracene opt C2H gaussian                                                     

 THE POINT GROUP OF THE MOLECULE IS C1      
 THE ORDER OF THE PRINCIPAL AXIS IS     0

 ATOM      ATOMIC                      COORDINATES (BOHR)
           CHARGE         X                   Y                   Z
 C           6.0     0.0000000000       -4.6805111209       -2.6544980950
 C           6.0    -0.0000000000       -0.0000000000        2.6478651567
 C           6.0     0.0000000000       -4.6805111209        2.6544980950
 C           6.0     0.0000000000        0.0000000000       -2.6478651567
 C           6.0     0.0000000000       -6.9070051769       -1.3459951293
 C           6.0    -0.0000000000        2.3092829515        1.3635317864
 C           6.0     0.0000000000       -6.9070051769        1.3459951293
 C           6.0    -0.0000000000        2.3092829515       -1.3635317864
 C           6.0    -0.0000000000       -2.3092829515        1.3635317864
 C           6.0     0.0000000000       -2.3092829515       -1.3635317864
 C           6.0    -0.0000000000        6.9070051769        1.3459951293
 C           6.0     0.0000000000        6.9070051769       -1.3459951293
 C           6.0    -0.0000000000        4.6805111209        2.6544980950
 C           6.0     0.0000000000        4.6805111209       -2.6544980950
 H           1.0     0.0000000000        4.6810591414       -4.7070239765
 H           1.0     0.0000000000       -4.6810591414        4.7070239765
 H           1.0     0.0000000000        0.0000000000       -4.7019595109
 H           1.0    -0.0000000000       -0.0000000000        4.7019595109
 H           1.0    -0.0000000000        4.6810591414        4.7070239765
 H           1.0     0.0000000000       -4.6810591414       -4.7070239765
 H           1.0    -0.0000000000        8.6937033038        2.3528789301
 H           1.0     0.0000000000       -8.6937033038       -2.3528789301
 H           1.0     0.0000000000        8.6937033038       -2.3528789301
 H           1.0     0.0000000000       -8.6937033038        2.3528789301

          INTERNUCLEAR DISTANCES (ANGS.)
          ------------------------------

                1 C          2 C          3 C          4 C          5 C     

   1 C       0.0000000    3.7426803    2.8094000 *  2.4768225 *  1.3666156 *
   2 C       3.7426803    0.0000000    2.4768225 *  2.8023800 *  4.2220798  
   3 C       2.8094000 *  2.4768225 *  0.0000000    3.7426803    2.4227548 *
   4 C       2.4768225 *  2.8023800 *  3.7426803    0.0000000    3.7193891  
   5 C       1.3666156 *  4.2220798    2.4227548 *  3.7193891    0.0000000  
   6 C       4.2664220    1.3983002 *  3.7613975    2.4493587 *  5.0834493  
   7 C       2.4227548 *  3.7193891    1.3666156 *  4.2220798    1.4245400 *
   8 C       3.7613975    2.4493587 *  4.2664220    1.3983002 *  4.8770588  
   9 C       2.4688990 *  1.3983002 *  1.4287116 *  2.4493587 *  2.8240711 *
  10 C       1.4287116 *  2.4493587 *  2.4688990 *  1.3983002 *  2.4330277 *
  11 C       6.4869983    3.7193891    6.1708220    4.2220798    7.4475695  
  12 C       6.1708220    4.2220798    6.4869983    3.7193891    7.3100600  
  13 C       5.6948466    2.4768225 *  4.9536400    3.7426803    6.4869983  
  14 C       4.9536400    3.7426803    5.6948466    2.4768225 *  6.1708220  
  15 H       5.0716017    4.6134639    6.3021212    2.7061842 *  6.3848640  
  16 H       3.8955500    2.7061842 *  1.0861500 *  4.6134639    3.4128395  
  17 H       2.7034320 *  3.8893600    4.6140085    1.0869800 *  4.0636271  
  18 H       4.6140085    1.0869800 *  2.7034320 *  3.8893600    4.8581952  
  19 H       6.3021212    2.7061842 *  5.0716017    4.6134639    6.9183176  
  20 H       1.0861500 *  4.6134639    3.8955500    2.7061842 *  2.1332703 *
  21 H       7.5571150    4.6031576    7.0791296    5.3073054    8.4844092  
  22 H       2.1296795 *  5.3073054    3.3957983    4.6031576    1.0852786 *
  23 H       7.0791296    5.3073054    7.5571150    4.6031576    8.2727165  
  24 H       3.3957983    4.6031576    2.1296795 *  5.3073054    2.1737504 *

                6 C          7 C          8 C          9 C         10 C     

   1 C       4.2664220    2.4227548 *  3.7613975    2.4688990 *  1.4287116 *
   2 C       1.3983002 *  3.7193891    2.4493587 *  1.3983002 *  2.4493587 *
   3 C       3.7613975    1.3666156 *  4.2664220    1.4287116 *  2.4688990 *
   4 C       2.4493587 *  4.2220798    1.3983002 *  2.4493587 *  1.3983002 *
   5 C       5.0834493    1.4245400 *  4.8770588    2.8240711 *  2.4330277 *
   6 C       0.0000000    4.8770588    1.4431000 *  2.4440400 *  2.8382863 *
   7 C       4.8770588    0.0000000    5.0834493    2.4330277 *  2.8240711 *
   8 C       1.4431000 *  5.0834493    0.0000000    2.8382863 *  2.4440400 *
   9 C       2.4440400 *  2.4330277 *  2.8382863 *  0.0000000    1.4431000 *
  10 C       2.8382863 *  2.8240711 *  2.4440400 *  1.4431000 *  0.0000000  
  11 C       2.4330277 *  7.3100600    2.8240711 *  4.8770588    5.0834493  
  12 C       2.8240711 *  7.4475695    2.4330277 *  5.0834493    4.8770588  
  13 C       1.4287116 *  6.1708220    2.4688990 *  3.7613975    4.2664220  
  14 C       2.4688990 *  6.4869983    1.4287116 *  4.2664220    3.7613975  
  15 H       3.4488788    6.9183176    2.1692564 *  4.8992935    4.1004860  
  16 H       4.1004860    2.1332703 *  4.8992935    2.1692564 *  3.4488788  
  17 H       3.4344775    4.8581952    2.1480873 *  3.4344775    2.1480873 *
  18 H       2.1480873 *  4.0636271    3.4344775    2.1480873 *  3.4344775  
  19 H       2.1692564 *  6.3848640    3.4488788    4.1004860    4.8992935  
  20 H       4.8992935    3.4128395    4.1004860    3.4488788    2.1692564 *
  21 H       3.4188139    8.2727165    3.9092029    5.8460200    6.1456919  
  22 H       6.1456919    2.1737504 *  5.8460200    3.9092029    3.4188139  
  23 H       3.9092029    8.4844092    3.4188139    6.1456919    5.8460200  
  24 H       5.8460200    1.0852786 *  6.1456919    3.4188139    3.9092029  

               11 C         12 C         13 C         14 C         15 H     

   1 C       6.4869983    6.1708220    5.6948466    4.9536400    5.0716017  
   2 C       3.7193891    4.2220798    2.4768225 *  3.7426803    4.6134639  
   3 C       6.1708220    6.4869983    4.9536400    5.6948466    6.3021212  
   4 C       4.2220798    3.7193891    3.7426803    2.4768225 *  2.7061842 *
   5 C       7.4475695    7.3100600    6.4869983    6.1708220    6.3848640  
   6 C       2.4330277 *  2.8240711 *  1.4287116 *  2.4688990 *  3.4488788  
   7 C       7.3100600    7.4475695    6.1708220    6.4869983    6.9183176  
   8 C       2.8240711 *  2.4330277 *  2.4688990 *  1.4287116 *  2.1692564 *
   9 C       4.8770588    5.0834493    3.7613975    4.2664220    4.8992935  
  10 C       5.0834493    4.8770588    4.2664220    3.7613975    4.1004860  
  11 C       0.0000000    1.4245400 *  1.3666156 *  2.4227548 *  3.4128395  
  12 C       1.4245400 *  0.0000000    2.4227548 *  1.3666156 *  2.1332703 *
  13 C       1.3666156 *  2.4227548 *  0.0000000    2.8094000 *  3.8955500  
  14 C       2.4227548 *  1.3666156 *  2.8094000 *  0.0000000    1.0861500 *
  15 H       3.4128395    2.1332703 *  3.8955500    1.0861500 *  0.0000000  
  16 H       6.3848640    6.9183176    5.0716017    6.3021212    7.0257833  
  17 H       4.8581952    4.0636271    4.6140085    2.7034320 *  2.4771114 *
  18 H       4.0636271    4.8581952    2.7034320 *  4.6140085    5.5611792  
  19 H       2.1332703 *  3.4128395    1.0861500 *  3.8955500    4.9817000  
  20 H       6.9183176    6.3848640    6.3021212    5.0716017    4.9542200  
  21 H       1.0852786 *  2.1737504 *  2.1296795 *  3.3957983    4.2972172  
  22 H       8.4844092    8.2727165    7.5571150    7.0791296    7.1864193  
  23 H       2.1737504 *  1.0852786 *  3.3957983    2.1296795 *  2.4618581 *
  24 H       8.2727165    8.4844092    7.0791296    7.5571150    8.0031214  

               16 H         17 H         18 H         19 H         20 H     

   1 C       3.8955500    2.7034320 *  4.6140085    6.3021212    1.0861500 *
   2 C       2.7061842 *  3.8893600    1.0869800 *  2.7061842 *  4.6134639  
   3 C       1.0861500 *  4.6140085    2.7034320 *  5.0716017    3.8955500  
   4 C       4.6134639    1.0869800 *  3.8893600    4.6134639    2.7061842 *
   5 C       3.4128395    4.0636271    4.8581952    6.9183176    2.1332703 *
   6 C       4.1004860    3.4344775    2.1480873 *  2.1692564 *  4.8992935  
   7 C       2.1332703 *  4.8581952    4.0636271    6.3848640    3.4128395  
   8 C       4.8992935    2.1480873 *  3.4344775    3.4488788    4.1004860  
   9 C       2.1692564 *  3.4344775    2.1480873 *  4.1004860    3.4488788  
  10 C       3.4488788    2.1480873 *  3.4344775    4.8992935    2.1692564 *
  11 C       6.3848640    4.8581952    4.0636271    2.1332703 *  6.9183176  
  12 C       6.9183176    4.0636271    4.8581952    3.4128395    6.3848640  
  13 C       5.0716017    4.6140085    2.7034320 *  1.0861500 *  6.3021212  
  14 C       6.3021212    2.7034320 *  4.6140085    3.8955500    5.0716017  
  15 H       7.0257833    2.4771114 *  5.5611792    4.9817000    4.9542200  
  16 H       0.0000000    5.5611792    2.4771114 *  4.9542200    4.9817000  
  17 H       5.5611792    0.0000000    4.9763400    5.5611792    2.4771114 *
  18 H       2.4771114 *  4.9763400    0.0000000    2.4771114 *  5.5611792  
  19 H       4.9542200    5.5611792    2.4771114 *  0.0000000    7.0257833  
  20 H       4.9817000    2.4771114 *  5.5611792    7.0257833    0.0000000  
  21 H       7.1864193    5.9246875    4.7654947    2.4618581 *  8.0031214  
  22 H       4.2972172    4.7654947    5.9246875    8.0031214    2.4618581 *
  23 H       8.0031214    4.7654947    5.9246875    4.2972172    7.1864193  
  24 H       2.4618581 *  5.9246875    4.7654947    7.1864193    4.2972172  

               21 H         22 H         23 H         24 H     

   1 C       7.5571150    2.1296795 *  7.0791296    3.3957983  
   2 C       4.6031576    5.3073054    5.3073054    4.6031576  
   3 C       7.0791296    3.3957983    7.5571150    2.1296795 *
   4 C       5.3073054    4.6031576    4.6031576    5.3073054  
   5 C       8.4844092    1.0852786 *  8.2727165    2.1737504 *
   6 C       3.4188139    6.1456919    3.9092029    5.8460200  
   7 C       8.2727165    2.1737504 *  8.4844092    1.0852786 *
   8 C       3.9092029    5.8460200    3.4188139    6.1456919  
   9 C       5.8460200    3.9092029    6.1456919    3.4188139  
  10 C       6.1456919    3.4188139    5.8460200    3.9092029  
  11 C       1.0852786 *  8.4844092    2.1737504 *  8.2727165  
  12 C       2.1737504 *  8.2727165    1.0852786 *  8.4844092  
  13 C       2.1296795 *  7.5571150    3.3957983    7.0791296  
  14 C       3.3957983    7.0791296    2.1296795 *  7.5571150  
  15 H       4.2972172    7.1864193    2.4618581 *  8.0031214  
  16 H       7.1864193    4.2972172    8.0031214    2.4618581 *
  17 H       5.9246875    4.7654947    4.7654947    5.9246875  
  18 H       4.7654947    5.9246875    5.9246875    4.7654947  
  19 H       2.4618581 *  8.0031214    4.2972172    7.1864193  
  20 H       8.0031214    2.4618581 *  7.1864193    4.2972172  
  21 H       0.0000000    9.5320389    2.4901800 *  9.2010200  
  22 H       9.5320389    0.0000000    9.2010200    2.4901800 *
  23 H       2.4901800 *  9.2010200    0.0000000    9.5320389  
  24 H       9.2010200    2.4901800 *  9.5320389    0.0000000  

  * ... LESS THAN  3.000


     ATOMIC BASIS SET
     ----------------
 THE CONTRACTED PRIMITIVE FUNCTIONS HAVE BEEN UNNORMALIZED
 THE CONTRACTED BASIS FUNCTIONS ARE NOW NORMALIZED TO UNITY

  SHELL TYPE  PRIMITIVE        EXPONENT          CONTRACTION COEFFICIENT(S)

 C         

      1   S       1          3047.5248800    0.001834737132
      1   S       2           457.3695180    0.014037322813
      1   S       3           103.9486850    0.068842622264
      1   S       4            29.2101553    0.232184443216
      1   S       5             9.2866630    0.467941348435
      1   S       6             3.1639270    0.362311985337

      2   L       7             7.8682723   -0.119332419775    0.068999066591
      2   L       8             1.8812885   -0.160854151696    0.316423960957
      2   L       9             0.5442493    1.143456437840    0.744308290898

      3   L      10             0.1687145    1.000000000000    1.000000000000

 C         

      4   S      11          3047.5248800    0.001834737132
      4   S      12           457.3695180    0.014037322813
      4   S      13           103.9486850    0.068842622264
      4   S      14            29.2101553    0.232184443216
      4   S      15             9.2866630    0.467941348435
      4   S      16             3.1639270    0.362311985337

      5   L      17             7.8682723   -0.119332419775    0.068999066591
      5   L      18             1.8812885   -0.160854151696    0.316423960957
      5   L      19             0.5442493    1.143456437840    0.744308290898

      6   L      20             0.1687145    1.000000000000    1.000000000000

 C         

      7   S      21          3047.5248800    0.001834737132
      7   S      22           457.3695180    0.014037322813
      7   S      23           103.9486850    0.068842622264
      7   S      24            29.2101553    0.232184443216
      7   S      25             9.2866630    0.467941348435
      7   S      26             3.1639270    0.362311985337

      8   L      27             7.8682723   -0.119332419775    0.068999066591
      8   L      28             1.8812885   -0.160854151696    0.316423960957
      8   L      29             0.5442493    1.143456437840    0.744308290898

      9   L      30             0.1687145    1.000000000000    1.000000000000

 C         

     10   S      31          3047.5248800    0.001834737132
     10   S      32           457.3695180    0.014037322813
     10   S      33           103.9486850    0.068842622264
     10   S      34            29.2101553    0.232184443216
     10   S      35             9.2866630    0.467941348435
     10   S      36             3.1639270    0.362311985337

     11   L      37             7.8682723   -0.119332419775    0.068999066591
     11   L      38             1.8812885   -0.160854151696    0.316423960957
     11   L      39             0.5442493    1.143456437840    0.744308290898

     12   L      40             0.1687145    1.000000000000    1.000000000000

 C         

     13   S      41          3047.5248800    0.001834737132
     13   S      42           457.3695180    0.014037322813
     13   S      43           103.9486850    0.068842622264
     13   S      44            29.2101553    0.232184443216
     13   S      45             9.2866630    0.467941348435
     13   S      46             3.1639270    0.362311985337

     14   L      47             7.8682723   -0.119332419775    0.068999066591
     14   L      48             1.8812885   -0.160854151696    0.316423960957
     14   L      49             0.5442493    1.143456437840    0.744308290898

     15   L      50             0.1687145    1.000000000000    1.000000000000

 C         

     16   S      51          3047.5248800    0.001834737132
     16   S      52           457.3695180    0.014037322813
     16   S      53           103.9486850    0.068842622264
     16   S      54            29.2101553    0.232184443216
     16   S      55             9.2866630    0.467941348435
     16   S      56             3.1639270    0.362311985337

     17   L      57             7.8682723   -0.119332419775    0.068999066591
     17   L      58             1.8812885   -0.160854151696    0.316423960957
     17   L      59             0.5442493    1.143456437840    0.744308290898

     18   L      60             0.1687145    1.000000000000    1.000000000000

 C         

     19   S      61          3047.5248800    0.001834737132
     19   S      62           457.3695180    0.014037322813
     19   S      63           103.9486850    0.068842622264
     19   S      64            29.2101553    0.232184443216
     19   S      65             9.2866630    0.467941348435
     19   S      66             3.1639270    0.362311985337

     20   L      67             7.8682723   -0.119332419775    0.068999066591
     20   L      68             1.8812885   -0.160854151696    0.316423960957
     20   L      69             0.5442493    1.143456437840    0.744308290898

     21   L      70             0.1687145    1.000000000000    1.000000000000

 C         

     22   S      71          3047.5248800    0.001834737132
     22   S      72           457.3695180    0.014037322813
     22   S      73           103.9486850    0.068842622264
     22   S      74            29.2101553    0.232184443216
     22   S      75             9.2866630    0.467941348435
     22   S      76             3.1639270    0.362311985337

     23   L      77             7.8682723   -0.119332419775    0.068999066591
     23   L      78             1.8812885   -0.160854151696    0.316423960957
     23   L      79             0.5442493    1.143456437840    0.744308290898

     24   L      80             0.1687145    1.000000000000    1.000000000000

 C         

     25   S      81          3047.5248800    0.001834737132
     25   S      82           457.3695180    0.014037322813
     25   S      83           103.9486850    0.068842622264
     25   S      84            29.2101553    0.232184443216
     25   S      85             9.2866630    0.467941348435
     25   S      86             3.1639270    0.362311985337

     26   L      87             7.8682723   -0.119332419775    0.068999066591
     26   L      88             1.8812885   -0.160854151696    0.316423960957
     26   L      89             0.5442493    1.143456437840    0.744308290898

     27   L      90             0.1687145    1.000000000000    1.000000000000

 C         

     28   S      91          3047.5248800    0.001834737132
     28   S      92           457.3695180    0.014037322813
     28   S      93           103.9486850    0.068842622264
     28   S      94            29.2101553    0.232184443216
     28   S      95             9.2866630    0.467941348435
     28   S      96             3.1639270    0.362311985337

     29   L      97             7.8682723   -0.119332419775    0.068999066591
     29   L      98             1.8812885   -0.160854151696    0.316423960957
     29   L      99             0.5442493    1.143456437840    0.744308290898

     30   L     100             0.1687145    1.000000000000    1.000000000000

 C         

     31   S     101          3047.5248800    0.001834737132
     31   S     102           457.3695180    0.014037322813
     31   S     103           103.9486850    0.068842622264
     31   S     104            29.2101553    0.232184443216
     31   S     105             9.2866630    0.467941348435
     31   S     106             3.1639270    0.362311985337

     32   L     107             7.8682723   -0.119332419775    0.068999066591
     32   L     108             1.8812885   -0.160854151696    0.316423960957
     32   L     109             0.5442493    1.143456437840    0.744308290898

     33   L     110             0.1687145    1.000000000000    1.000000000000

 C         

     34   S     111          3047.5248800    0.001834737132
     34   S     112           457.3695180    0.014037322813
     34   S     113           103.9486850    0.068842622264
     34   S     114            29.2101553    0.232184443216
     34   S     115             9.2866630    0.467941348435
     34   S     116             3.1639270    0.362311985337

     35   L     117             7.8682723   -0.119332419775    0.068999066591
     35   L     118             1.8812885   -0.160854151696    0.316423960957
     35   L     119             0.5442493    1.143456437840    0.744308290898

     36   L     120             0.1687145    1.000000000000    1.000000000000

 C         

     37   S     121          3047.5248800    0.001834737132
     37   S     122           457.3695180    0.014037322813
     37   S     123           103.9486850    0.068842622264
     37   S     124            29.2101553    0.232184443216
     37   S     125             9.2866630    0.467941348435
     37   S     126             3.1639270    0.362311985337

     38   L     127             7.8682723   -0.119332419775    0.068999066591
     38   L     128             1.8812885   -0.160854151696    0.316423960957
     38   L     129             0.5442493    1.143456437840    0.744308290898

     39   L     130             0.1687145    1.000000000000    1.000000000000

 C         

     40   S     131          3047.5248800    0.001834737132
     40   S     132           457.3695180    0.014037322813
     40   S     133           103.9486850    0.068842622264
     40   S     134            29.2101553    0.232184443216
     40   S     135             9.2866630    0.467941348435
     40   S     136             3.1639270    0.362311985337

     41   L     137             7.8682723   -0.119332419775    0.068999066591
     41   L     138             1.8812885   -0.160854151696    0.316423960957
     41   L     139             0.5442493    1.143456437840    0.744308290898

     42   L     140             0.1687145    1.000000000000    1.000000000000

 H         

     43   S     141            18.7311370    0.033494604338
     43   S     142             2.8253944    0.234726953484
     43   S     143             0.6401217    0.813757326146

     44   S     144             0.1612778    1.000000000000

 H         

     45   S     145            18.7311370    0.033494604338
     45   S     146             2.8253944    0.234726953484
     45   S     147             0.6401217    0.813757326146

     46   S     148             0.1612778    1.000000000000

 H         

     47   S     149            18.7311370    0.033494604338
     47   S     150             2.8253944    0.234726953484
     47   S     151             0.6401217    0.813757326146

     48   S     152             0.1612778    1.000000000000

 H         

     49   S     153            18.7311370    0.033494604338
     49   S     154             2.8253944    0.234726953484
     49   S     155             0.6401217    0.813757326146

     50   S     156             0.1612778    1.000000000000

 H         

     51   S     157            18.7311370    0.033494604338
     51   S     158             2.8253944    0.234726953484
     51   S     159             0.6401217    0.813757326146

     52   S     160             0.1612778    1.000000000000

 H         

     53   S     161            18.7311370    0.033494604338
     53   S     162             2.8253944    0.234726953484
     53   S     163             0.6401217    0.813757326146

     54   S     164             0.1612778    1.000000000000

 H         

     55   S     165            18.7311370    0.033494604338
     55   S     166             2.8253944    0.234726953484
     55   S     167             0.6401217    0.813757326146

     56   S     168             0.1612778    1.000000000000

 H         

     57   S     169            18.7311370    0.033494604338
     57   S     170             2.8253944    0.234726953484
     57   S     171             0.6401217    0.813757326146

     58   S     172             0.1612778    1.000000000000

 H         

     59   S     173            18.7311370    0.033494604338
     59   S     174             2.8253944    0.234726953484
     59   S     175             0.6401217    0.813757326146

     60   S     176             0.1612778    1.000000000000

 H         

     61   S     177            18.7311370    0.033494604338
     61   S     178             2.8253944    0.234726953484
     61   S     179             0.6401217    0.813757326146

     62   S     180             0.1612778    1.000000000000

 TOTAL NUMBER OF BASIS SET SHELLS             =   62
 NUMBER OF CARTESIAN GAUSSIAN BASIS FUNCTIONS =  146
 NUMBER OF ELECTRONS                          =   94
 CHARGE OF MOLECULE                           =    0
 SPIN MULTIPLICITY                            =    1
 NUMBER OF OCCUPIED ORBITALS (ALPHA)          =   47
 NUMBER OF OCCUPIED ORBITALS (BETA )          =   47
 TOTAL NUMBER OF ATOMS                        =   24
 THE NUCLEAR REPULSION ENERGY IS      766.3548992199

     $CONTRL OPTIONS
     ---------------
 SCFTYP=MCSCF        RUNTYP=ENERGY       EXETYP=RUN     
 MPLEVL=       0     CITYP =NONE         CCTYP =NONE         VBTYP =NONE    
 DFTTYP=NONE         TDDFT =NONE    
 MULT  =       1     ICHARG=       0     NZVAR =       0     COORD =UNIQUE  
 PP    =NONE         RELWFN=NONE         LOCAL =NONE         NUMGRD=       F
 ISPHER=      -1     NOSYM =       0     MAXIT =      90     UNITS =ANGS    
 PLTORB=       F     MOLPLT=       F     AIMPAC=       F     FRIEND=        
 NPRINT=       7     IREST =       0     GEOM  =INPUT   
 NORMF =       0     NORMP =       0     ITOL  =      20     ICUT  =       9
 INTTYP=BEST         GRDTYP=BEST         QMTTOL= 1.0E-06

     $SYSTEM OPTIONS
     ---------------
  REPLICATED MEMORY=     1000000 WORDS (ON EVERY NODE).
 DISTRIBUTED MEMDDI=           0 MILLION WORDS IN AGGREGATE,
 MEMDDI DISTRIBUTED OVER   1 PROCESSORS IS           0 WORDS/PROCESSOR.
 TOTAL MEMORY REQUESTED ON EACH PROCESSOR=     1000000 WORDS.
 TIMLIM=      525600.00 MINUTES, OR     365.0 DAYS.
 PARALL= F  BALTYP=  DLB     KDIAG=    0  COREFL= F
 MXSEQ2=     300 MXSEQ3=     150  mem10=         0  mem22=         0

 Using Gaussians for PCM contribution to MEP, params: 0.10000E+01 0.10000E-07

          ----------------
          PROPERTIES INPUT
          ----------------

     MOMENTS            FIELD           POTENTIAL          DENSITY
 IEMOM =       1   IEFLD =       0   IEPOT =       0   IEDEN =       0
 WHERE =COMASS     WHERE =NUCLEI     WHERE =NUCLEI     WHERE =NUCLEI  
 OUTPUT=BOTH       OUTPUT=BOTH       OUTPUT=BOTH       OUTPUT=BOTH    
 IEMINT=       0   IEFINT=       0                     IEDINT=       0
                                                       MORB  =       0

     -------------------------------
     INTEGRAL TRANSFORMATION OPTIONS
     -------------------------------
     NWORD  =            0
     CUTOFF = 1.0E-09     MPTRAN =       0
     DIRTRF =       F     AOINTS =DUP     

          ----------------------
          MCSCF INPUT PARAMETERS
          ----------------------
 CONVERGER SELECTION: FOCAS = F  SOSCF = T  FULLNR = F  QUD = F  JACOBI = F
 SECULAR EQUATION METHOD CISTEP = GUGA    
 --- GENERAL INPUT OPTIONS:
 MAXIT =      60  MICIT =       5  ACURCY= 1.000E-05
 DAMP  =   0.000  CANONC=       T  ENGTOL= 1.000E-10
 EKT   =       F  NPUNCH=       2  NWORD =         0
 REGENERATE CI AFTER CONVERGENCE = NONE    
 DIABATIZATION AFTER CONVERGENCE =        F
 --- INPUT FOR SOSCF CONVERGER:
 FORS  =       T  NOFO  =       1

          ----------------------
          INTEGRAL INPUT OPTIONS
          ----------------------
 NOPK  =       1 NORDER=       0 SCHWRZ=       T

     ------------------------------------------
     THE POINT GROUP IS C1 , NAXIS= 0, ORDER= 1
     ------------------------------------------

     DIMENSIONS OF THE SYMMETRY SUBSPACES ARE
 A   =  146

 ..... DONE SETTING UP THE RUN .....
 STEP CPU TIME =     0.04 TOTAL CPU TIME =          0.0 (      0.0 MIN)
 TOTAL WALL CLOCK TIME=          0.0 SECONDS, CPU UTILIZATION IS    97.41%

          ********************
          1 ELECTRON INTEGRALS
          ********************
 TIME TO DO   DIPOLE INTEGRALS=      0.02
 ...... END OF ONE-ELECTRON INTEGRALS ......
 STEP CPU TIME =     0.02 TOTAL CPU TIME =          0.1 (      0.0 MIN)
 TOTAL WALL CLOCK TIME=          0.1 SECONDS, CPU UTILIZATION IS    98.15%

          -------------
          GUESS OPTIONS
          -------------
          GUESS =MOREAD            NORB  =      48          NORDER=       0
          MIX   =       F          PRTMO =       F          PUNMO =       F
          TOLZ  = 1.0E-08          TOLE  = 1.0E-05
          SYMDEN=       F          PURIFY=       F

 INITIAL GUESS ORBITALS GENERATED BY MOREAD   ROUTINE.

 SYMMETRIES FOR INITIAL GUESS ORBITALS FOLLOW.   BOTH SET(S).
    48 ORBITALS ARE OCCUPIED (   14 CORE ORBITALS).
     1=A        2=A        3=A        4=A        5=A        6=A        7=A   
     8=A        9=A       10=A       11=A       12=A       13=A       14=A   
    15=A       16=A       17=A       18=A       19=A       20=A       21=A   
    22=A       23=A       24=A       25=A       26=A       27=A       28=A   
    29=A       30=A       31=A       32=A       33=A       34=A       35=A   
    36=A       37=A       38=A       39=A       40=A       41=A       42=A   
    43=A       44=A       45=A       46=A       47=A       48=A       49=A   
    50=A       51=A       52=A       53=A       54=A       55=A       56=A   
    57=A       58=A       59=A       60=A       61=A       62=A       63=A   
    64=A       65=A       66=A       67=A       68=A       69=A       70=A   
    71=A       72=A       73=A       74=A       75=A       76=A       77=A   
    78=A       79=A       80=A       81=A       82=A       83=A       84=A   
    85=A       86=A       87=A       88=A       89=A       90=A       91=A   
    92=A       93=A       94=A       95=A       96=A       97=A       98=A   
    99=A      100=A      101=A      102=A      103=A      104=A      105=A   
   106=A      107=A      108=A      109=A      110=A      111=A      112=A   
   113=A      114=A      115=A      116=A      117=A      118=A      119=A   
   120=A      121=A      122=A      123=A      124=A      125=A      126=A   
   127=A      128=A      129=A      130=A      131=A      132=A      133=A   
   134=A      135=A      136=A      137=A      138=A      139=A      140=A   
   141=A      142=A      143=A      144=A      145=A      146=A   
 ...... END OF INITIAL ORBITAL SELECTION ......
 STEP CPU TIME =     0.01 TOTAL CPU TIME =          0.1 (      0.0 MIN)
 TOTAL WALL CLOCK TIME=          0.1 SECONDS, CPU UTILIZATION IS    98.43%

                    ----------------------
                    AO INTEGRAL TECHNOLOGY
                    ----------------------
     S,P,L SHELL ROTATED AXIS INTEGRALS, REPROGRAMMED BY
        KAZUYA ISHIMURA (IMS) AND JOSE SIERRA (SYNSTAR).
     S,P,D,L SHELL ROTATED AXIS INTEGRALS PROGRAMMED BY
        KAZUYA ISHIMURA (INSTITUTE FOR MOLECULAR SCIENCE).
     S,P,D,F,G SHELL TO TOTAL QUARTET ANGULAR MOMENTUM SUM 5,
        ERIC PROGRAM BY GRAHAM FLETCHER (ELORET AND NASA ADVANCED
        SUPERCOMPUTING DIVISION, AMES RESEARCH CENTER).
     S,P,D,F,G,L SHELL GENERAL RYS QUADRATURE PROGRAMMED BY
        MICHEL DUPUIS (PACIFIC NORTHWEST NATIONAL LABORATORY).

          --------------------
          2 ELECTRON INTEGRALS
          --------------------

 THE -PK- OPTION IS OFF, THE INTEGRALS ARE NOT IN SUPERMATRIX FORM.
 STORING   15000 INTEGRALS/RECORD ON DISK, USING 12 BYTES/INTEGRAL.
 TWO ELECTRON INTEGRAL EVALUATION REQUIRES   91309 WORDS OF MEMORY.
 SCHWARZ INEQUALITY OVERHEAD:     10132 INTEGRALS, T=        0.00
 II,JST,KST,LST =  1  1  1  1 NREC =         1 INTLOC =    1
 II,JST,KST,LST =  2  1  1  1 NREC =         1 INTLOC =    2
 II,JST,KST,LST =  3  1  1  1 NREC =         1 INTLOC =   34
 II,JST,KST,LST =  4  1  1  1 NREC =         1 INTLOC =  214
 II,JST,KST,LST =  5  1  1  1 NREC =         1 INTLOC =  361
 II,JST,KST,LST =  6  1  1  1 NREC =         1 INTLOC = 2045
 II,JST,KST,LST =  7  1  1  1 NREC =         1 INTLOC = 6326
 II,JST,KST,LST =  8  1  1  1 NREC =         1 INTLOC = 7554
 II,JST,KST,LST =  9  1  1  1 NREC =         2 INTLOC = 1294
 II,JST,KST,LST = 10  1  1  1 NREC =         3 INTLOC = 1322
 II,JST,KST,LST = 11  1  1  1 NREC =         3 INTLOC = 4806
 II,JST,KST,LST = 12  1  1  1 NREC =         4 INTLOC =14560
 II,JST,KST,LST = 13  1  1  1 NREC =         7 INTLOC = 9297
 II,JST,KST,LST = 14  1  1  1 NREC =         8 INTLOC = 3039
 II,JST,KST,LST = 15  1  1  1 NREC =        11 INTLOC = 9797
 II,JST,KST,LST = 16  1  1  1 NREC =        17 INTLOC = 1617
 II,JST,KST,LST = 17  1  1  1 NREC =        18 INTLOC =  406
 II,JST,KST,LST = 18  1  1  1 NREC =        23 INTLOC = 7148
 II,JST,KST,LST = 19  1  1  1 NREC =        32 INTLOC = 6795
 II,JST,KST,LST = 20  1  1  1 NREC =        34 INTLOC = 2628
 II,JST,KST,LST = 21  1  1  1 NREC =        43 INTLOC = 9452
 II,JST,KST,LST = 22  1  1  1 NREC =        57 INTLOC =13329
 II,JST,KST,LST = 23  1  1  1 NREC =        60 INTLOC = 3849
 II,JST,KST,LST = 24  1  1  1 NREC =        73 INTLOC = 5966
 II,JST,KST,LST = 25  1  1  1 NREC =        94 INTLOC =  379
 II,JST,KST,LST = 26  1  1  1 NREC =        99 INTLOC = 4343
 II,JST,KST,LST = 27  1  1  1 NREC =       125 INTLOC =13703
 II,JST,KST,LST = 28  1  1  1 NREC =       158 INTLOC =11701
 II,JST,KST,LST = 29  1  1  1 NREC =       166 INTLOC =10283
 II,JST,KST,LST = 30  1  1  1 NREC =       205 INTLOC = 1175
 II,JST,KST,LST = 31  1  1  1 NREC =       251 INTLOC = 2168
 II,JST,KST,LST = 32  1  1  1 NREC =       254 INTLOC = 3099
 II,JST,KST,LST = 33  1  1  1 NREC =       274 INTLOC = 8233
 II,JST,KST,LST = 34  1  1  1 NREC =       313 INTLOC = 9727
 II,JST,KST,LST = 35  1  1  1 NREC =       318 INTLOC = 5856
 II,JST,KST,LST = 36  1  1  1 NREC =       346 INTLOC =11658
 II,JST,KST,LST = 37  1  1  1 NREC =       396 INTLOC = 7391
 II,JST,KST,LST = 38  1  1  1 NREC =       405 INTLOC = 5003
 II,JST,KST,LST = 39  1  1  1 NREC =       455 INTLOC = 4809
 II,JST,KST,LST = 40  1  1  1 NREC =       530 INTLOC = 8756
 II,JST,KST,LST = 41  1  1  1 NREC =       541 INTLOC =12962
 II,JST,KST,LST = 42  1  1  1 NREC =       605 INTLOC =13879
 II,JST,KST,LST = 43  1  1  1 NREC =       700 INTLOC = 2830
 II,JST,KST,LST = 44  1  1  1 NREC =       716 INTLOC = 8552
 II,JST,KST,LST = 45  1  1  1 NREC =       743 INTLOC = 1640
 II,JST,KST,LST = 46  1  1  1 NREC =       759 INTLOC =14647
 II,JST,KST,LST = 47  1  1  1 NREC =       787 INTLOC = 7420
 II,JST,KST,LST = 48  1  1  1 NREC =       809 INTLOC =14325
 II,JST,KST,LST = 49  1  1  1 NREC =       843 INTLOC =10234
 II,JST,KST,LST = 50  1  1  1 NREC =       867 INTLOC = 2270
 II,JST,KST,LST = 51  1  1  1 NREC =       902 INTLOC = 9151
 II,JST,KST,LST = 52  1  1  1 NREC =       922 INTLOC = 7244
 II,JST,KST,LST = 53  1  1  1 NREC =       954 INTLOC =13276
 II,JST,KST,LST = 54  1  1  1 NREC =       975 INTLOC = 4664
 II,JST,KST,LST = 55  1  1  1 NREC =      1008 INTLOC =12492
 II,JST,KST,LST = 56  1  1  1 NREC =      1025 INTLOC = 7039
 II,JST,KST,LST = 57  1  1  1 NREC =      1052 INTLOC =11510
 II,JST,KST,LST = 58  1  1  1 NREC =      1069 INTLOC =11294
 II,JST,KST,LST = 59  1  1  1 NREC =      1097 INTLOC = 9367
 II,JST,KST,LST = 60  1  1  1 NREC =      1115 INTLOC =10114
 II,JST,KST,LST = 61  1  1  1 NREC =      1144 INTLOC =13600
 II,JST,KST,LST = 62  1  1  1 NREC =      1163 INTLOC = 4990
 SCHWARZ INEQUALITY TEST SKIPPED     1032288 INTEGRAL BLOCKS.
 TOTAL NUMBER OF NONZERO TWO-ELECTRON INTEGRALS =            17882623
       1193 INTEGRAL RECORDS WERE STORED ON DISK FILE  8.
  ...... END OF TWO-ELECTRON INTEGRALS .....
 STEP CPU TIME =     1.52 TOTAL CPU TIME =          1.6 (      0.0 MIN)
 TOTAL WALL CLOCK TIME=          1.6 SECONDS, CPU UTILIZATION IS    99.83%

          -----------------
          MCSCF CALCULATION
          -----------------

 ----- NUCLEAR ENERGY ----- =       766.3548992199

          -----------------------     ----------------------------
          GUGA DISTINCT ROW TABLE     WRITTEN BY B.R.BROOKS,P.SAXE
          -----------------------     ----------------------------

      GROUP=C1           NPRT=       0
       FORS=       T   INTACT=       F
       FOCI=       F   MXNINT=   50000
       SOCI=       F   MXNEME=   10000
     IEXCIT=       0

      -CORE-    -INTERNAL-  -EXTERNAL-
     NFZC=   0   NDOC=   1   NEXT=   0
     NMCC=  46   NAOS=   0   NFZV=   0
                 NBOS=   0
                 NALP=   0
                 NVAL=   1

 THE MAXIMUM ELECTRON EXCITATION WILL BE   2

 SYMMETRIES FOR THE  46 CORE,   2 ACTIVE,   0 EXTERNAL MO-S ARE
     CORE= A     A     A     A     A     A     A     A     A     A   
           A     A     A     A     A     A     A     A     A     A   
           A     A     A     A     A     A     A     A     A     A   
           A     A     A     A     A     A     A     A     A     A   
           A     A     A     A     A     A   
   ACTIVE= A     A   
           DOC   VAL 

 MOLECULAR CHARGE          =    0
 NUMBER OF ALPHA ELECTRONS =   47
 NUMBER OF  BETA ELECTRONS =   47

 THE ELECTRONIC STATE IS  1-A   

 THE DISTINCT ROW TABLE HAS         5 ROWS.
  THE WAVEFUNCTION CONTAINS         3 WALKS (CSF-S).

 TOTAL NUMBER OF INTEGRALS =          9
 NUMBER OF INTEGRALS/GROUP =          9
 NUMBER OF INTEGRAL GROUPS =          1
 MAXIMUM RECORD SIZES ARE     500 FOR UNIT 11      22 FOR UNIT 12
                            30001 FOR UNIT 15   30001 FOR UNIT 16
 ...... END OF -DRT- GENERATION ...... 
 STEP CPU TIME =     0.01 TOTAL CPU TIME =          1.6 (      0.0 MIN)
 TOTAL WALL CLOCK TIME=          1.6 SECONDS, CPU UTILIZATION IS    99.84%
 OPENING FILE DAFL30 WITH      81 LOGICAL RECORDS OF   21316 WORDS
 WITH A MAXIMUM OF         891 PHYSICAL RECORDS OF    2048 WORDS

          ------------------------------
          CASSCF INTEGRAL TRANSFORMATION
          ------------------------------
 AO INTEGRALS WILL BE READ IN FROM DISK...

 NUMBER OF CORE MOLECULAR ORBITALS     =    46
 NUMBER OF OCCUPIED MOLECULAR ORBITALS =    48
 TOTAL NUMBER OF MOLECULAR ORBITALS    =   146
 TOTAL NUMBER OF ATOMIC ORBITALS       =   146
 MEMORY WHICH WOULD BE NEEDED FOR SINGLE PASS TRANSFORMATION =    3279301

 ----- CHOOSING THREE STEPS TRANSFORMATION -----
 NUMBER OF WORDS USED      =     937334
 NUMBER OF WORDS AVAILABLE =     999999
 NUMBER OF PASSES          =          4
 PASS #   1 COMPLETED IN         0.2 SECONDS.
 PASS #   2 COMPLETED IN         0.1 SECONDS.
 PASS #   3 COMPLETED IN         0.1 SECONDS.
 PASS #   4 COMPLETED IN         0.1 SECONDS.

 ----- NUCLEAR REPULSION ENERGY =    766.35489922
 ----- FROZEN CORE ENERGY       =  -1301.25165114

 ... SYMMETRY ...           CPU =    0.00
 ... (PQ|RS) -> (PQ|KL) ... CPU =    0.63
 ... (PQ|KL) -> (IJ|KL) ... CPU =    0.00

 NUMBER OF (PQ|KL) INTEGRALS WRITTEN      17993
 NUMBER OF (IJ|KL) INTEGRALS WRITTEN          6
 ..... END OF CAS INTEGRAL TRANSFORMATION .....
 STEP CPU TIME =     0.64 TOTAL CPU TIME =          2.2 (      0.0 MIN)
 TOTAL WALL CLOCK TIME=          2.2 SECONDS, CPU UTILIZATION IS    99.88%

          ------------------------
          GUGA-CI INTEGRAL SORTING
          ------------------------

     80017 WORDS NEEDED TO SORT              9 GUGA INTEGRALS IN MEMORY
    999999 WORDS ARE AVAILABLE
 CHOOSING IN-MEMORY SORTING...
 IN CORE ALGORITHM SORTED              3 NON-ZERO 1E- INTEGRALS
 IN CORE ALGORITHM SORTED              6 NON-ZERO 2E- INTEGRALS
 ...... END OF INTEGRAL SORTING ...... 
 STEP CPU TIME =     0.00 TOTAL CPU TIME =          2.2 (      0.0 MIN)
 TOTAL WALL CLOCK TIME=          2.2 SECONDS, CPU UTILIZATION IS    99.88%

 -------------------------     ---------------------------------------
 ENERGY MATRIX CALCULATION     WRITTEN BY B.R.BROOKS,W.D.LAIDIG,P.SAXE
 -------------------------     ---------------------------------------

 COMPUTING THE HAMILTONIAN FOR THE         3 CSF-S...

           8 IS THE TOTAL NUMBER OF GENERATED LOOPS
           8 WERE CREATED BY THE LOOP-DRIVEN ALGORITHM
           0 WERE CREATED IMPLICITLY

           8 IS THE TOTAL NUMBER OF PROCESSED LOOPS
           5     DIAGONAL LOOPS ARE STORED ON WORK15 IN     1 BUFFERS OF  10000 ELEMENTS.
           3 OFF DIAGONAL LOOPS ARE STORED ON WORK16 IN     1 BUFFERS OF  10000 ELEMENTS.
 ...... END OF ENERGY MATRIX CALCULATION ...... 
 STEP CPU TIME =     0.00 TOTAL CPU TIME =          2.2 (      0.0 MIN)
 TOTAL WALL CLOCK TIME=          2.2 SECONDS, CPU UTILIZATION IS    99.88%

          -----------------------------------------
          DAVIDSON METHOD CI-MATRIX DIAGONALIZATION
                   WRITTEN BY STEVE ELBERT
          -----------------------------------------
 NUMBER OF STATES REQUESTED =     2
 MAX. NUMB. OF EXPAN. VEC   =    30
 MAX. NUMB. IMPROVED STATES =     2
 MAX. NUMB. OF ITERATIONS   =    50
 CONVERGENCE CRITERION      =    1.0E-05

 CHOOSING TO SOLVE SECULAR EQUATION IN MEMORY
 NUMBER OF WORDS AVAILABLE =     999999
 NUMBER OF WORDS USED      =      31110
 ENERGY MATRIX BUFFER SIZE =      10000
 SOLUTION FOUND WITH DIRECT METHOD

 STATE #    1  ENERGY =    -535.826200432

      CSF      COEF    OCCUPANCY (IGNORING CORE)
      ---      ----    --------- --------- -----
        1    0.981672  20
        3   -0.190559  02

 STATE #    2  ENERGY =    -535.487108083

      CSF      COEF    OCCUPANCY (IGNORING CORE)
      ---      ----    --------- --------- -----
        2    0.999617  11

 RENORMALIZED DAVIDSON CORRECTION FOR     1-REFERENCE CI.
 C0SQ= 0.963679 EREF=     -535.808055 E-E(REF)=   0.018145 E(Q)=   0.000684
 GIVES A E(SD+Q) ESTIMATE OF     -535.8268843223
 ...... END OF CI-MATRIX DIAGONALIZATION ......
 STEP CPU TIME =     0.00 TOTAL CPU TIME =          2.2 (      0.0 MIN)
 TOTAL WALL CLOCK TIME=          2.2 SECONDS, CPU UTILIZATION IS    99.88%

          -------------------------------------
          2-PARTICLE DENSITY MATRIX CALCULATION
          -------------------------------------
 2 BODY DENSITY IS AN AVERAGE OF  1 STATE(S).
   STATE    WEIGHT          ENERGY
     1    1.000000     -535.8262004324
            8 -DM2- LOOPS WERE GENERATED
            8 WERE CREATED BY THE LOOP-DRIVEN ALGORITHM
            0 WERE CREATED IMPLICITLY
          1 RECORDS OF LENGTH 50000 WRITTEN TO FILE 15
 ...... END OF 2-PARTICLE DENSITY MATRIX CALCULATION ......
 STEP CPU TIME =     0.00 TOTAL CPU TIME =          2.2 (      0.0 MIN)
 TOTAL WALL CLOCK TIME=          2.2 SECONDS, CPU UTILIZATION IS    99.88%

          ----------------------------------
          2-PARTICLE DENSITY MATRIX LABELING
          ----------------------------------
      97574 WORDS NEEDED TO LABEL DM2 MATRIX
          1 RECORDS OF LENGTH 50000  READ FROM FILE 15
          1 RECORDS OF LENGTH 15000 WRITTEN TO FILE 16
 ...... END OF 2-PARTICLE DENSITY MATRIX LABELING ......
 STEP CPU TIME =     0.00 TOTAL CPU TIME =          2.2 (      0.0 MIN)
 TOTAL WALL CLOCK TIME=          2.2 SECONDS, CPU UTILIZATION IS    99.88%

          --------------
          -DM2- ORDERING
          --------------
      30010 WORDS NEEDED (    999999 AVAILABLE) TO ORDER DM2 IN MEMORY
 CHOOSING IN MEMORY ORDERING...
                               1 RECORDS OF LENGTH 15000  READ FROM FILE 16
          6 DM2 VALUES IN      1 RECORDS OF LENGTH 15000 WRITTEN TO FILE 15
 ...... END OF -DM2- ORDERING ...... 
 STEP CPU TIME =     0.00 TOTAL CPU TIME =          2.2 (      0.0 MIN)
 TOTAL WALL CLOCK TIME=          2.2 SECONDS, CPU UTILIZATION IS    99.87%

          --------------------------------------
          APPROXIMATE SECOND-ORDER MCSCF PROGRAM
          --------------------------------------
          PROGRAM WRITTEN BY G.CHABAN, A.MARQUEZ, AND M.DUPUIS

  NUMBER OF WORDS NEEDED     =     195101
  NUMBER AVAILABLE           =     999999

 ----- GAMMA(IJKL)*(PQ|KL) PRODUCTS ----- CPU TIME =      0.001
 ----- ORBITAL SYMMETRY             ----- CPU TIME =      0.000
 ----- FOCK OPERATORS CONSTRUCTION  ----- CPU TIME =      0.158
 ----- WARNING : CORE-ACTIVE GAP    =    0.00241
     MICIT =   1 ASYMM =    0.000003 ROTMAX =    0.000001
 ----- EFFECTIVE FOCK + ROTATE ORBS ----- CPU TIME =      0.010
 ..... DONE WITH CASSCF ORBITAL UPDATE .....
 STEP CPU TIME =     0.17 TOTAL CPU TIME =          2.4 (      0.0 MIN)
 TOTAL WALL CLOCK TIME=          2.4 SECONDS, CPU UTILIZATION IS    99.88%

 ITER     TOTAL ENERGY      DEL(E)  LAGRANGIAN ASYMMETRY   SQCDF  MICIT   DAMP
   1     -535.826200432 -0.826200432  0.000003  142   42 9.130E-07  1   0.0000
       ----------START APPROXIMATE SECOND ORDER MCSCF----------
   2     -535.826200432 -0.000000000  0.000002  144   44 4.587E-11  1   0.0000

          --------------------
          LAGRANGIAN CONVERGED
          --------------------

 FINAL MCSCF ENERGY IS     -535.8262004325 AFTER   2 ITERATIONS

 -MCCI- BASED ON OPTIMIZED ORBITALS
 ----------------------------------

 PLEASE NOTE: IF THE ACTIVE ORBITALS ARE CANONICALIZED BELOW,
 THE FOLLOWING CI EXPANSION COEFFICIENTS AND THE DENSITY DO NOT
 CORRESPOND TO THE PRINTED ORBITALS.  THE PRINTED EXPANSIONS MATCH
 THE ORBITALS USED DURING THE LAST ITERATION.  IF YOU WISH TO SEE
 CI EXPANSIONS BASED ON THE CANONICAL (OR NATURAL) ORBITALS, YOU
 MUST RUN A CI CALCULATION WITH THAT ORBITAL CHOICE READ IN $VEC.

 STATE #    1  ENERGY =    -535.826200432

      CSF      COEF    OCCUPANCY (IGNORING CORE)
      ---      ----    --------- --------- -----
        1    0.981672  20
        2    0.002837  11
        3   -0.190559  02

 STATE #    2  ENERGY =    -535.487108035

      CSF      COEF    OCCUPANCY (IGNORING CORE)
      ---      ----    --------- --------- -----
        1   -0.008033  20
        2    0.999617  11
        3   -0.026499  02

 DENSITY MATRIX OVER ACTIVE MO-S

             1           2

    1    1.9273665
    2    0.0031740   0.0726335

 FORMING THE "STANDARD FOCK OPERATOR" USING INTEGRALS FROM DISK...
    46 FILLED,    2 ACTIVE, AND   98 VIRTUAL ORBITALS  WILL BE CANONICALIZED

          ----------------------
          MCSCF NATURAL ORBITALS
          ----------------------

                      1          2          3          4          5
                  -11.2507   -11.2507   -11.2498   -11.2497   -11.2418
                     A          A          A          A          A   
    1  C  1  S    0.022587   0.022873   0.030027   0.030033  -0.335768
    2  C  1  S    0.000148   0.000205   0.000275   0.000231  -0.008159
    3  C  1  X    0.000000   0.000000   0.000000  -0.000000   0.000000
    4  C  1  Y   -0.000119  -0.000113  -0.000119  -0.000053  -0.000116
    5  C  1  Z   -0.000065  -0.000086  -0.000052  -0.000046  -0.000040
    6  C  1  S    0.001979   0.001539   0.001910   0.004453   0.004467
    7  C  1  X    0.000000   0.000000   0.000000  -0.000000   0.000000
    8  C  1  Y    0.001453   0.000671   0.000893   0.000123   0.000832
    9  C  1  Z    0.000294   0.000403   0.000916   0.002695   0.000536
   10  C  2  S    0.050729   0.000017  -0.047753  -0.000005  -0.000297
   11  C  2  S    0.000204   0.000000  -0.000210  -0.000000  -0.000011
   12  C  2  X    0.000000   0.000000   0.000000  -0.000000   0.000000
   13  C  2  Y   -0.000000   0.000300   0.000000  -0.000170  -0.000024
   14  C  2  Z    0.000187   0.000000  -0.000081  -0.000000  -0.000002
   15  C  2  S    0.006377   0.000002  -0.009242  -0.000001   0.000033
   16  C  2  X    0.000000   0.000000   0.000000  -0.000000   0.000000
   17  C  2  Y    0.000001  -0.002147   0.000000  -0.000042   0.000931
   18  C  2  Z   -0.001827  -0.000001   0.004499   0.000000   0.000001
   19  C  3  S    0.026720   0.026592  -0.025807  -0.026324  -0.391967
   20  C  3  S    0.000183   0.000229  -0.000240  -0.000196  -0.009588
   21  C  3  X    0.000000   0.000000   0.000000  -0.000000   0.000000
   22  C  3  Y   -0.000136  -0.000120   0.000098   0.000036  -0.000121
   23  C  3  Z    0.000072   0.000092  -0.000041  -0.000034   0.000065
   24  C  3  S    0.002259   0.002157  -0.001585  -0.004196   0.005678
   25  C  3  X    0.000000   0.000000   0.000000  -0.000000   0.000000
   26  C  3  Y    0.001584   0.000683  -0.000649  -0.000028   0.000835
   27  C  3  Z   -0.000422  -0.000779   0.000865   0.002612  -0.000909
   28  C  4  S    0.034309   0.000012   0.043772   0.000005  -0.000122
   29  C  4  S   -0.000042  -0.000000  -0.000050  -0.000000  -0.000008
   30  C  4  X    0.000000   0.000000   0.000000  -0.000000   0.000000
   31  C  4  Y   -0.000000   0.000273  -0.000000   0.000211  -0.000019
   32  C  4  Z   -0.000176  -0.000000  -0.000114  -0.000000   0.000002
   33  C  4  S    0.005026   0.000002   0.010382   0.000001   0.000041
   34  C  4  X    0.000000   0.000000   0.000000  -0.000000   0.000000
   35  C  4  Y    0.000001  -0.002130   0.000000  -0.000259   0.000789
   36  C  4  Z    0.001157   0.000000   0.004789   0.000001   0.000009
   37  C  5  S    0.000851   0.000834   0.002227   0.002335  -0.307386
   38  C  5  S   -0.000067  -0.000066   0.000094   0.000161  -0.007161
   39  C  5  X    0.000000   0.000000   0.000000  -0.000000   0.000000
   40  C  5  Y   -0.000046  -0.000064  -0.000017  -0.000046  -0.000035
   41  C  5  Z    0.000013   0.000010   0.000037   0.000053   0.000052
   42  C  5  S    0.000464  -0.000001  -0.000942  -0.002895   0.002007
   43  C  5  X    0.000000   0.000000   0.000000  -0.000000   0.000000
   44  C  5  Y    0.000128   0.000091  -0.000475  -0.001536  -0.000300
   45  C  5  Z   -0.000178   0.000053  -0.000573  -0.000486  -0.000217
   46  C  6  S    0.534386  -0.531054  -0.455033   0.461026  -0.021685
   47  C  6  S    0.013226  -0.013188  -0.012257   0.012316  -0.000923
   48  C  6  X    0.000000   0.000000   0.000000  -0.000000   0.000000
   49  C  6  Y    0.000023   0.000085   0.000045  -0.000002  -0.000203
   50  C  6  Z    0.000097  -0.000061   0.000188  -0.000186   0.000010
   51  C  6  S   -0.009099   0.007653   0.016546  -0.013899   0.002014
   52  C  6  X    0.000000   0.000000   0.000000  -0.000000   0.000000
   53  C  6  Y    0.000511  -0.000051  -0.002845  -0.001904   0.001903
   54  C  6  Z   -0.001207   0.000641  -0.003332   0.004577  -0.000050
   55  C  7  S    0.001136   0.001103  -0.002023  -0.002158  -0.322528
   56  C  7  S   -0.000054  -0.000044  -0.000102  -0.000168  -0.007491
   57  C  7  X    0.000000   0.000000   0.000000  -0.000000   0.000000
   58  C  7  Y   -0.000047  -0.000070   0.000010   0.000037  -0.000029
   59  C  7  Z   -0.000019  -0.000017   0.000034   0.000052  -0.000036
   60  C  7  S    0.000328  -0.000409   0.001009   0.002866   0.001647
   61  C  7  X    0.000000   0.000000   0.000000  -0.000000   0.000000
   62  C  7  Y    0.000063  -0.000127   0.000489   0.001534  -0.000590
   63  C  7  Z    0.000262   0.000017  -0.000535  -0.000489   0.000222
   64  C  8  S    0.455729  -0.460924   0.534556  -0.531150  -0.018392
   65  C  8  S    0.011134  -0.011325   0.014226  -0.014050  -0.000772
   66  C  8  X    0.000000   0.000000   0.000000  -0.000000   0.000000
   67  C  8  Y    0.000028   0.000084  -0.000045   0.000014  -0.000191
   68  C  8  Z   -0.000126   0.000086   0.000171  -0.000176  -0.000017
   69  C  8  S   -0.006497   0.005624  -0.017869   0.014836   0.001277
   70  C  8  X    0.000000   0.000000   0.000000  -0.000000   0.000000
   71  C  8  Y    0.000104  -0.000321   0.002941   0.001876   0.001529
   72  C  8  Z    0.001685  -0.001273  -0.003091   0.004443  -0.000176
   73  C  9  S    0.534018   0.531415  -0.454938  -0.461130   0.020422
   74  C  9  S    0.013217   0.013197  -0.012255  -0.012319   0.000866
   75  C  9  X    0.000000   0.000000   0.000000  -0.000000   0.000000
   76  C  9  Y   -0.000023   0.000085  -0.000045  -0.000002  -0.000192
   77  C  9  Z    0.000097   0.000061   0.000188   0.000186  -0.000009
   78  C  9  S   -0.009093  -0.007659   0.016543   0.013903  -0.001880
   79  C  9  X    0.000000   0.000000   0.000000  -0.000000   0.000000
   80  C  9  Y   -0.000511  -0.000051   0.002846  -0.001903   0.001827
   81  C  9  Z   -0.001206  -0.000642  -0.003331  -0.004578   0.000044
   82  C 10  S    0.455419   0.461241   0.534436   0.531262   0.017310
   83  C 10  S    0.011126   0.011333   0.014222   0.014053   0.000725
   84  C 10  X    0.000000   0.000000   0.000000  -0.000000   0.000000
   85  C 10  Y   -0.000028   0.000084   0.000045   0.000014  -0.000181
   86  C 10  Z   -0.000126  -0.000086   0.000171   0.000176   0.000015
   87  C 10  S   -0.006493  -0.005628  -0.017865  -0.014840  -0.001203
   88  C 10  X    0.000000   0.000000   0.000000  -0.000000   0.000000
   89  C 10  Y   -0.000104  -0.000321  -0.002942   0.001875   0.001453
   90  C 10  Z    0.001684   0.001275  -0.003090  -0.004444   0.000168
   91  C 11  S    0.001137  -0.001102  -0.002023   0.002158   0.342884
   92  C 11  S   -0.000054   0.000044  -0.000102   0.000168   0.007962
   93  C 11  X    0.000000   0.000000   0.000000  -0.000000   0.000000
   94  C 11  Y    0.000047  -0.000070  -0.000010   0.000037  -0.000030
   95  C 11  Z   -0.000019   0.000017   0.000034  -0.000052   0.000038
   96  C 11  S    0.000328   0.000409   0.001010  -0.002866  -0.001741
   97  C 11  X    0.000000   0.000000   0.000000  -0.000000   0.000000
   98  C 11  Y   -0.000063  -0.000127  -0.000489   0.001534  -0.000630
   99  C 11  Z    0.000262  -0.000017  -0.000535   0.000489  -0.000230
  100  C 12  S    0.000851  -0.000833   0.002228  -0.002335   0.326732
  101  C 12  S   -0.000067   0.000066   0.000094  -0.000161   0.007610
  102  C 12  X    0.000000   0.000000   0.000000  -0.000000   0.000000
  103  C 12  Y    0.000046  -0.000064   0.000017  -0.000046  -0.000037
  104  C 12  Z    0.000013  -0.000010   0.000037  -0.000053  -0.000055
  105  C 12  S    0.000464   0.000001  -0.000942   0.002895  -0.002119
  106  C 12  X    0.000000   0.000000   0.000000  -0.000000   0.000000
  107  C 12  Y   -0.000128   0.000091   0.000476  -0.001536  -0.000323
  108  C 12  Z   -0.000178  -0.000053  -0.000573   0.000486   0.000225
  109  C 13  S    0.026738  -0.026574  -0.025813   0.026318   0.416769
  110  C 13  S    0.000183  -0.000228  -0.000240   0.000196   0.010192
  111  C 13  X    0.000000   0.000000   0.000000  -0.000000   0.000000
  112  C 13  Y    0.000136  -0.000120  -0.000098   0.000036  -0.000127
  113  C 13  Z    0.000072  -0.000092  -0.000041   0.000034  -0.000069
  114  C 13  S    0.002260  -0.002156  -0.001585   0.004195  -0.006019
  115  C 13  X    0.000000   0.000000   0.000000  -0.000000   0.000000
  116  C 13  Y   -0.001584   0.000682   0.000649  -0.000027   0.000866
  117  C 13  Z   -0.000422   0.000779   0.000866  -0.002612   0.000957
  118  C 14  S    0.022603  -0.022857   0.030034  -0.030026   0.356850
  119  C 14  S    0.000149  -0.000205   0.000275  -0.000231   0.008669
  120  C 14  X    0.000000   0.000000   0.000000  -0.000000   0.000000
  121  C 14  Y    0.000119  -0.000113   0.000119  -0.000053  -0.000122
  122  C 14  Z   -0.000065   0.000086  -0.000052   0.000046   0.000043
  123  C 14  S    0.001980  -0.001538   0.001911  -0.004453  -0.004740
  124  C 14  X    0.000000   0.000000   0.000000  -0.000000   0.000000
  125  C 14  Y   -0.001453   0.000670  -0.000893   0.000123   0.000864
  126  C 14  Z    0.000294  -0.000403   0.000917  -0.002695  -0.000566
  127  H 15  S   -0.000095   0.000035  -0.000084  -0.000030  -0.000110
  128  H 15  S    0.000034  -0.000049   0.000161  -0.000612   0.000708
  129  H 16  S   -0.000108  -0.000030   0.000068  -0.000035   0.000129
  130  H 16  S    0.000052   0.000134  -0.000154  -0.000599  -0.000695
  131  H 17  S   -0.000109  -0.000000  -0.000050  -0.000000  -0.000001
  132  H 17  S    0.000058   0.000000   0.000806   0.000000  -0.000002
  133  H 18  S   -0.000120  -0.000000   0.000035   0.000000  -0.000002
  134  H 18  S    0.000190   0.000000  -0.000801  -0.000000  -0.000006
  135  H 19  S   -0.000108   0.000030   0.000068   0.000035  -0.000138
  136  H 19  S    0.000053  -0.000134  -0.000154   0.000599   0.000745
  137  H 20  S   -0.000095  -0.000035  -0.000084   0.000030   0.000102
  138  H 20  S    0.000034   0.000049   0.000161   0.000612  -0.000663
  139  H 21  S   -0.000013  -0.000017   0.000020  -0.000030  -0.000133
  140  H 21  S    0.000034  -0.000064   0.000145  -0.000306   0.000933
  141  H 22  S   -0.000010   0.000021  -0.000023  -0.000028   0.000122
  142  H 22  S    0.000054   0.000107  -0.000140  -0.000294  -0.000797
  143  H 23  S   -0.000010  -0.000021  -0.000023   0.000028  -0.000130
  144  H 23  S    0.000054  -0.000107  -0.000140   0.000294   0.000847
  145  H 24  S   -0.000013   0.000017   0.000020   0.000030   0.000125
  146  H 24  S    0.000034   0.000064   0.000145   0.000307  -0.000877

                      6          7          8          9         10
                  -11.2418   -11.2415   -11.2415   -11.2404   -11.2404
                     A          A          A          A          A   
    1  C  1  S    0.356395   0.465401   0.467929   0.330691  -0.343300
    2  C  1  S    0.008627   0.011674   0.011747   0.008793  -0.009096
    3  C  1  X   -0.000000   0.000000  -0.000000  -0.000000   0.000000
    4  C  1  Y    0.000102   0.000087   0.000051  -0.000129   0.000106
    5  C  1  Z    0.000046   0.000202   0.000187   0.000211  -0.000215
    6  C  1  S   -0.004632  -0.006711  -0.008375  -0.009370   0.009054
    7  C  1  X   -0.000000   0.000000  -0.000000  -0.000000   0.000000
    8  C  1  Y   -0.000559   0.000071  -0.000128   0.000331  -0.000551
    9  C  1  Z   -0.000513  -0.001398  -0.002339  -0.002444   0.002255
   10  C  2  S   -0.009699   0.013694   0.000043   0.000246   0.013132
   11  C  2  S   -0.000361   0.000071   0.000000   0.000006   0.000327
   12  C  2  X   -0.000000   0.000000  -0.000000  -0.000000   0.000000
   13  C  2  Y    0.000001   0.000000  -0.000054   0.000015  -0.000000
   14  C  2  Z   -0.000054   0.000033   0.000000   0.000000   0.000024
   15  C  2  S    0.001085   0.003697   0.000011   0.000000   0.000014
   16  C  2  X   -0.000000   0.000000  -0.000000  -0.000000   0.000000
   17  C  2  Y   -0.000028  -0.000004   0.001254   0.000818  -0.000015
   18  C  2  Z    0.000018  -0.003167  -0.000010   0.000004   0.000222
   19  C  3  S    0.417209  -0.433700  -0.436863   0.308855  -0.320495
   20  C  3  S    0.010171  -0.010935  -0.011020   0.008233  -0.008510
   21  C  3  X   -0.000000   0.000000  -0.000000  -0.000000   0.000000
   22  C  3  Y    0.000111  -0.000071  -0.000032  -0.000130   0.000108
   23  C  3  Z   -0.000074   0.000203   0.000190  -0.000201   0.000204
   24  C  3  S   -0.005740   0.006473   0.008143  -0.008833   0.008559
   25  C  3  X   -0.000000   0.000000  -0.000000  -0.000000   0.000000
   26  C  3  Y   -0.000536  -0.000158   0.000012   0.000329  -0.000528
   27  C  3  Z    0.000801  -0.001416  -0.002352   0.002271  -0.002095
   28  C  4  S   -0.004000  -0.006887  -0.000021   0.000091   0.004850
   29  C  4  S   -0.000246   0.000087   0.000000   0.000002   0.000100
   30  C  4  X   -0.000000   0.000000  -0.000000  -0.000000   0.000000
   31  C  4  Y    0.000001  -0.000000   0.000056   0.000016  -0.000000
   32  C  4  Z    0.000051   0.000041   0.000000  -0.000001  -0.000031
   33  C  4  S    0.001337  -0.003706  -0.000012   0.000006   0.000330
   34  C  4  X   -0.000000   0.000000  -0.000000  -0.000000   0.000000
   35  C  4  Y   -0.000024   0.000004  -0.001388   0.000774  -0.000015
   36  C  4  Z    0.000296  -0.003193  -0.000010  -0.000001  -0.000037
   37  C  5  S    0.326470   0.234235   0.235340  -0.368137   0.382096
   38  C  5  S    0.007578   0.005591   0.005602  -0.009335   0.009680
   39  C  5  X   -0.000000   0.000000  -0.000000  -0.000000   0.000000
   40  C  5  Y    0.000031  -0.000019  -0.000003  -0.000181   0.000196
   41  C  5  Z   -0.000054   0.000175   0.000164  -0.000042   0.000029
   42  C  5  S   -0.001886  -0.000876  -0.000124   0.006662  -0.006824
   43  C  5  X   -0.000000   0.000000  -0.000000  -0.000000   0.000000
   44  C  5  Y    0.000396   0.001210   0.001563   0.001953  -0.001937
   45  C  5  Z    0.000152  -0.000750  -0.000564  -0.000452   0.000525
   46  C  6  S   -0.019973   0.024910  -0.025683   0.015173   0.013951
   47  C  6  S   -0.000901   0.001212  -0.001120   0.000643   0.000617
   48  C  6  X   -0.000000   0.000000  -0.000000  -0.000000   0.000000
   49  C  6  Y   -0.000176   0.000062  -0.000071   0.000065   0.000024
   50  C  6  Z    0.000026   0.000052  -0.000048   0.000040   0.000003
   51  C  6  S    0.002116  -0.007694   0.004911  -0.003308  -0.002304
   52  C  6  X   -0.000000   0.000000  -0.000000  -0.000000   0.000000
   53  C  6  Y    0.001185   0.001169   0.002398  -0.001415  -0.001054
   54  C  6  Z   -0.000096   0.001894  -0.001907  -0.000940  -0.000485
   55  C  7  S    0.343011  -0.178732  -0.180352  -0.370159   0.384457
   56  C  7  S    0.007942  -0.004271  -0.004290  -0.009361   0.009713
   57  C  7  X   -0.000000   0.000000  -0.000000  -0.000000   0.000000
   58  C  7  Y    0.000023   0.000030   0.000015  -0.000177   0.000192
   59  C  7  Z    0.000034   0.000178   0.000168   0.000047  -0.000035
   60  C  7  S   -0.001600   0.000388  -0.000384   0.006399  -0.006565
   61  C  7  X   -0.000000   0.000000  -0.000000  -0.000000   0.000000
   62  C  7  Y    0.000662  -0.001224  -0.001590   0.001807  -0.001787
   63  C  7  Z   -0.000128  -0.000790  -0.000611   0.000481  -0.000548
   64  C  8  S   -0.017206  -0.027313   0.027600   0.016603   0.015834
   65  C  8  S   -0.000759  -0.001312   0.001196   0.000707   0.000708
   66  C  8  X   -0.000000   0.000000  -0.000000  -0.000000   0.000000
   67  C  8  Y   -0.000165  -0.000080   0.000091   0.000070   0.000026
   68  C  8  Z   -0.000032   0.000048  -0.000045  -0.000042  -0.000006
   69  C  8  S    0.001175   0.007848  -0.004960  -0.003623  -0.002858
   70  C  8  X   -0.000000   0.000000  -0.000000  -0.000000   0.000000
   71  C  8  Y    0.001199  -0.001095  -0.002536  -0.001580  -0.001027
   72  C  8  Z   -0.000127   0.001901  -0.001936   0.000860   0.000358
   73  C  9  S   -0.021257   0.024751   0.025839  -0.014641   0.014511
   74  C  9  S   -0.000956   0.001205   0.001128  -0.000620   0.000641
   75  C  9  X   -0.000000   0.000000  -0.000000  -0.000000   0.000000
   76  C  9  Y    0.000188  -0.000061  -0.000072   0.000064  -0.000026
   77  C  9  Z    0.000027   0.000051   0.000048  -0.000039   0.000004
   78  C  9  S    0.002234  -0.007663  -0.004959   0.003220  -0.002427
   79  C  9  X   -0.000000   0.000000  -0.000000  -0.000000   0.000000
   80  C  9  Y   -0.001299  -0.001184   0.002391  -0.001375   0.001106
   81  C  9  Z   -0.000099   0.001882   0.001919   0.000921  -0.000520
   82  C 10  S   -0.018300  -0.027139  -0.027768  -0.015996   0.016443
   83  C 10  S   -0.000805  -0.001305  -0.001205  -0.000680   0.000734
   84  C 10  X   -0.000000   0.000000  -0.000000  -0.000000   0.000000
   85  C 10  Y    0.000176   0.000079   0.000092   0.000069  -0.000029
   86  C 10  Z   -0.000033   0.000048   0.000045   0.000042  -0.000007
   87  C 10  S    0.001252   0.007817   0.005009   0.003513  -0.002992
   88  C 10  X   -0.000000   0.000000  -0.000000  -0.000000   0.000000
   89  C 10  Y   -0.001291   0.001111  -0.002529  -0.001541   0.001085
   90  C 10  Z   -0.000137   0.001889   0.001948  -0.000846   0.000390
   91  C 11  S    0.322683  -0.179800   0.179183   0.384309   0.370313
   92  C 11  S    0.007470  -0.004296   0.004262   0.009718   0.009355
   93  C 11  X   -0.000000   0.000000  -0.000000  -0.000000   0.000000
   94  C 11  Y   -0.000021  -0.000030   0.000015  -0.000184  -0.000185
   95  C 11  Z    0.000032   0.000180  -0.000166  -0.000048  -0.000033
   96  C 11  S   -0.001496   0.000386   0.000387  -0.006640  -0.006320
   97  C 11  X   -0.000000   0.000000  -0.000000  -0.000000   0.000000
   98  C 11  Y   -0.000626   0.001234  -0.001582   0.001873   0.001718
   99  C 11  Z   -0.000114  -0.000794   0.000606  -0.000501  -0.000530
  100  C 12  S    0.307071   0.235748  -0.233927   0.382197   0.368028
  101  C 12  S    0.007126   0.005627  -0.005568   0.009691   0.009323
  102  C 12  X   -0.000000   0.000000  -0.000000  -0.000000   0.000000
  103  C 12  Y   -0.000029   0.000019  -0.000003  -0.000188  -0.000189
  104  C 12  Z   -0.000050   0.000176  -0.000163   0.000043   0.000027
  105  C 12  S   -0.001760  -0.000877   0.000119  -0.006913  -0.006570
  106  C 12  X   -0.000000   0.000000  -0.000000  -0.000000   0.000000
  107  C 12  Y   -0.000377  -0.001220   0.001556   0.002024   0.001862
  108  C 12  Z    0.000138  -0.000754   0.000559   0.000471   0.000508
  109  C 13  S    0.392544  -0.436381   0.434120  -0.320628  -0.308672
  110  C 13  S    0.009568  -0.011003   0.010951  -0.008545  -0.008195
  111  C 13  X   -0.000000   0.000000  -0.000000  -0.000000   0.000000
  112  C 13  Y   -0.000104   0.000071  -0.000031  -0.000134  -0.000103
  113  C 13  Z   -0.000070   0.000205  -0.000189   0.000209   0.000196
  114  C 13  S   -0.005384   0.006524  -0.008102   0.009147   0.008221
  115  C 13  X   -0.000000   0.000000  -0.000000  -0.000000   0.000000
  116  C 13  Y    0.000484   0.000158   0.000013   0.000349   0.000515
  117  C 13  Z    0.000745  -0.001431   0.002343  -0.002348  -0.002009
  118  C 14  S    0.335171   0.468332  -0.465044  -0.343348  -0.330687
  119  C 14  S    0.008111   0.011747  -0.011674  -0.009128  -0.008761
  120  C 14  X   -0.000000   0.000000  -0.000000  -0.000000   0.000000
  121  C 14  Y   -0.000094  -0.000088   0.000051  -0.000133  -0.000101
  122  C 14  Z    0.000043   0.000203  -0.000186  -0.000219  -0.000207
  123  C 14  S   -0.004349  -0.006763   0.008333   0.009704   0.008697
  124  C 14  X   -0.000000   0.000000  -0.000000  -0.000000   0.000000
  125  C 14  Y    0.000507  -0.000070  -0.000128   0.000351   0.000538
  126  C 14  Z   -0.000479  -0.001412   0.002330   0.002527   0.002162
  127  H 15  S   -0.000119  -0.000196   0.000219   0.000092   0.000087
  128  H 15  S    0.000732   0.000715  -0.000403  -0.000301  -0.000349
  129  H 16  S   -0.000152   0.000182   0.000209  -0.000079   0.000079
  130  H 16  S    0.000847  -0.000631  -0.000335   0.000279  -0.000347
  131  H 17  S   -0.000038  -0.000164  -0.000001  -0.000001  -0.000037
  132  H 17  S   -0.000060  -0.001039  -0.000003   0.000001   0.000072
  133  H 18  S   -0.000053   0.000154   0.000000  -0.000001  -0.000047
  134  H 18  S   -0.000183   0.001037   0.000003   0.000001   0.000034
  135  H 19  S   -0.000144   0.000183  -0.000208   0.000081   0.000076
  136  H 19  S    0.000803  -0.000633   0.000331  -0.000292  -0.000336
  137  H 20  S   -0.000126  -0.000195  -0.000220  -0.000089   0.000090
  138  H 20  S    0.000774   0.000713   0.000407   0.000288  -0.000361
  139  H 21  S   -0.000137   0.000058  -0.000052  -0.000151  -0.000138
  140  H 21  S    0.000876  -0.000497   0.000569   0.000524   0.000531
  141  H 22  S   -0.000140  -0.000080  -0.000074   0.000146  -0.000144
  142  H 22  S    0.000855   0.000623   0.000697  -0.000472   0.000518
  143  H 23  S   -0.000133  -0.000081   0.000073  -0.000151  -0.000138
  144  H 23  S    0.000804   0.000627  -0.000693   0.000491   0.000499
  145  H 24  S   -0.000145   0.000058   0.000052   0.000146  -0.000143
  146  H 24  S    0.000931  -0.000494  -0.000572  -0.000504   0.000550

                     11         12         13         14         15
                  -11.2397   -11.2397   -11.2389   -11.2359    -1.1883
                     A          A          A          A          A   
    1  C  1  S    0.188011   0.227385  -0.002046   0.004983  -0.048683
    2  C  1  S    0.005402   0.006528  -0.000218   0.000162   0.095815
    3  C  1  X   -0.000000   0.000000  -0.000000  -0.000000   0.000000
    4  C  1  Y   -0.000040  -0.000045   0.000016  -0.000006   0.013534
    5  C  1  Z    0.000128   0.000161  -0.000013   0.000050   0.031303
    6  C  1  S   -0.012093  -0.014278   0.000871   0.000162   0.056908
    7  C  1  X   -0.000000   0.000000  -0.000000  -0.000000   0.000000
    8  C  1  Y    0.000619   0.000343  -0.000503   0.000382   0.008477
    9  C  1  Z   -0.005063  -0.005626   0.001181  -0.000485   0.002512
   10  C  2  S    0.017412   0.001651   0.993386   0.003147  -0.069661
   11  C  2  S    0.000444   0.000042   0.025596  -0.000084   0.136590
   12  C  2  X   -0.000000   0.000000  -0.000000  -0.000000   0.000000
   13  C  2  Y   -0.000008   0.000080   0.000000   0.000000   0.000000
   14  C  2  Z    0.000028   0.000003  -0.000450   0.000041  -0.043755
   15  C  2  S   -0.004642  -0.000440  -0.023261   0.001296   0.092826
   16  C  2  X   -0.000000   0.000000  -0.000000  -0.000000   0.000000
   17  C  2  Y    0.000077  -0.000808  -0.000000   0.000000  -0.000000
   18  C  2  Z    0.001832   0.000174   0.006635  -0.001586  -0.007242
   19  C  3  S   -0.185241  -0.224420   0.015142  -0.000438  -0.048758
   20  C  3  S   -0.005345  -0.006468   0.000440  -0.000169   0.095989
   21  C  3  X   -0.000000   0.000000  -0.000000  -0.000000   0.000000
   22  C  3  Y    0.000043   0.000050  -0.000004   0.000017   0.013615
   23  C  3  Z    0.000129   0.000163  -0.000057   0.000012  -0.031331
   24  C  3  S    0.012122   0.014314  -0.000194   0.000759   0.056843
   25  C  3  X   -0.000000   0.000000  -0.000000  -0.000000   0.000000
   26  C  3  Y   -0.000637  -0.000367   0.000375  -0.000485   0.008439
   27  C  3  Z   -0.005087  -0.005650   0.000601  -0.001117  -0.002462
   28  C  4  S   -0.003846  -0.000365  -0.002766   0.994597  -0.069272
   29  C  4  S   -0.000100  -0.000009  -0.000243   0.025648   0.135754
   30  C  4  X   -0.000000   0.000000  -0.000000  -0.000000   0.000000
   31  C  4  Y    0.000008  -0.000080   0.000000  -0.000000   0.000000
   32  C  4  Z    0.000034   0.000003  -0.000043   0.000451   0.043619
   33  C  4  S    0.004369   0.000414   0.001500  -0.023122   0.091939
[...]
   13             0.060567   0.101540   0.113267   0.175802   0.118711
   14             0.061777   0.095480   0.112936   0.176060   0.119107
   15             0.027851   0.000000   0.000389   0.000000   0.095708
   16             0.027442   0.000000   0.000359   0.000000   0.095551
   17             0.095739   0.000000   0.003023   0.000000   0.000000
   18             0.093041   0.000000   0.002875   0.000000   0.000000
   19             0.027442   0.000000   0.000359   0.000000   0.095551
   20             0.027851   0.000000   0.000389   0.000000   0.095708
   21             0.044260   0.000000   0.120641   0.000000   0.036541
   22             0.043209   0.000000   0.121442   0.000000   0.037190
   23             0.043209   0.000000   0.121442   0.000000   0.037190
   24             0.044260   0.000000   0.120641   0.000000   0.036541

                     41         42         43         44         45

                  2.000000   2.000000   2.000000   2.000000   2.000000

    1             0.130221   0.078313   0.089302   0.306190   0.325498
    2             0.146049   0.115200   0.183087   0.001236  -0.000000
    3             0.130200   0.078450   0.043538   0.341620   0.325555
    4             0.147558   0.116382   0.078835   0.019402   0.000000
    5             0.102189   0.050639   0.316173   0.088611   0.107193
    6             0.131380   0.181116   0.099327   0.032507   0.065567
    7             0.101976   0.050641   0.271302   0.152643   0.109081
    8             0.131965   0.181119   0.049398   0.068103   0.067117
    9             0.131380   0.181116   0.099327   0.032503   0.065567
   10             0.131965   0.181120   0.049398   0.068104   0.067118
   11             0.101975   0.050641   0.271302   0.152642   0.109078
   12             0.102189   0.050638   0.316173   0.088616   0.107190
   13             0.130200   0.078451   0.043537   0.341626   0.325547
   14             0.130221   0.078313   0.089301   0.306199   0.325490
   15             0.000430   0.063105   0.000000   0.000000   0.000000
   16             0.000523   0.063138   0.000000   0.000000   0.000000
   17            -0.000000   0.110409   0.000000   0.000000   0.000000
   18             0.000000   0.109324   0.000000   0.000000   0.000000
   19             0.000523   0.063138   0.000000   0.000000   0.000000
   20             0.000430   0.063105   0.000000   0.000000   0.000000
   21             0.062367   0.013929   0.000000   0.000000   0.000000
   22             0.061947   0.013891   0.000000   0.000000   0.000000
   23             0.061947   0.013891   0.000000   0.000000   0.000000
   24             0.062367   0.013929   0.000000   0.000000   0.000000

                     46         47         48

                  2.000000   1.927372   0.072628

    1            -0.000187   0.009897   0.000475
    2             0.000000   0.578565   0.022377
    3            -0.000193   0.013659   0.000560
    4             0.000000   0.763646   0.029170
    5             0.200804   0.033787   0.001305
    6             0.301341   0.072125   0.002666
    7             0.199086   0.018839   0.000715
    8             0.299148   0.144272   0.004819
    9             0.301340   0.072128   0.002666
   10             0.299148   0.144268   0.004819
   11             0.199092   0.018839   0.000715
   12             0.200800   0.033788   0.001305
   13            -0.000193   0.013660   0.000560
   14            -0.000187   0.009897   0.000475
   15             0.000000   0.000000   0.000000
   16             0.000000   0.000000   0.000000
   17             0.000000   0.000000   0.000000
   18             0.000000   0.000000   0.000000
   19             0.000000   0.000000   0.000000
   20             0.000000   0.000000   0.000000
   21             0.000000   0.000000   0.000000
   22             0.000000   0.000000   0.000000
   23             0.000000   0.000000   0.000000
   24             0.000000   0.000000   0.000000
 WARNING! MCSCF POPULATIONS SHOWN ABOVE ARE FOR THE NATURAL ORBITALS.
 IGNORE THE ABOVE DATA FOR MCSCF FUNCTIONS WHICH ARE NOT OF -FORS- TYPE.
 THE FOLLOWING POPULATIONS ARE CORRECT FOR ANY MCSCF WAVEFUNCTION.

               ----- POPULATIONS IN EACH AO -----
                             MULLIKEN      LOWDIN
              1  C  1  S      1.99775     1.98907
              2  C  1  S      0.69921     0.55070
              3  C  1  X      0.52625     0.49205
              4  C  1  Y      0.75641     0.70487
              5  C  1  Z      0.73342     0.66707
              6  C  1  S      0.43370     0.39517
              7  C  1  X      0.47646     0.51218
              8  C  1  Y      0.15556     0.36401
              9  C  1  Z      0.38180     0.43483
             10  C  2  S      1.99775     1.98889
             11  C  2  S      0.70040     0.55101
             12  C  2  X      0.54020     0.50913
             13  C  2  Y      0.75731     0.70574
             14  C  2  Z      0.72806     0.66264
             15  C  2  S      0.39611     0.38967
             16  C  2  X      0.46573     0.50248
             17  C  2  Y      0.17447     0.35547
             18  C  2  Z      0.41122     0.43651
             19  C  3  S      1.99775     1.98907
             20  C  3  S      0.69930     0.55076
             21  C  3  X      0.52604     0.49189
             22  C  3  Y      0.75649     0.70493
             23  C  3  Z      0.73349     0.66713
             24  C  3  S      0.43363     0.39516
             25  C  3  X      0.47604     0.51180
             26  C  3  Y      0.15551     0.36399
             27  C  3  Z      0.38179     0.43482
             28  C  4  S      1.99774     1.98887
             29  C  4  S      0.69954     0.55044
             30  C  4  X      0.54998     0.51774
             31  C  4  Y      0.75573     0.70451
             32  C  4  Z      0.72643     0.66131
             33  C  4  S      0.39556     0.38961
             34  C  4  X      0.45542     0.49453
             35  C  4  Y      0.17434     0.35556
             36  C  4  Z      0.41121     0.43686
             37  C  5  S      1.99776     1.98917
             38  C  5  S      0.69623     0.54940
             39  C  5  X      0.52267     0.48739
             40  C  5  Y      0.75093     0.68732
             41  C  5  Z      0.74271     0.68782
             42  C  5  S      0.49215     0.40006
             43  C  5  X      0.48109     0.51625
             44  C  5  Y      0.32383     0.41729
             45  C  5  Z      0.20439     0.38991
             46  C  6  S      1.99778     1.98816
             47  C  6  S      0.69998     0.53988
             48  C  6  X      0.52986     0.48718
             49  C  6  Y      0.75983     0.70464
             50  C  6  Z      0.74144     0.69187
             51  C  6  S      0.43112     0.36449
             52  C  6  X      0.46144     0.49972
             53  C  6  Y      0.28297     0.37163
             54  C  6  Z      0.15975     0.37729
             55  C  7  S      1.99776     1.98917
             56  C  7  S      0.69617     0.54935
             57  C  7  X      0.52287     0.48755
             58  C  7  Y      0.75087     0.68727
             59  C  7  Z      0.74264     0.68776
             60  C  7  S      0.49213     0.40006
             61  C  7  X      0.48131     0.51649
             62  C  7  Y      0.32386     0.41730
             63  C  7  Z      0.20434     0.38989
             64  C  8  S      1.99778     1.98816
             65  C  8  S      0.70015     0.54002
             66  C  8  X      0.52923     0.48687
             67  C  8  Y      0.76025     0.70503
             68  C  8  Z      0.74152     0.69194
             69  C  8  S      0.43147     0.36454
             70  C  8  X      0.46106     0.49870
             71  C  8  Y      0.28358     0.37174
             72  C  8  Z      0.15995     0.37732
             73  C  9  S      1.99778     1.98816
             74  C  9  S      0.69998     0.53988
             75  C  9  X      0.52986     0.48718
             76  C  9  Y      0.75983     0.70464
             77  C  9  Z      0.74144     0.69187
             78  C  9  S      0.43112     0.36449
             79  C  9  X      0.46144     0.49972
             80  C  9  Y      0.28297     0.37163
             81  C  9  Z      0.15975     0.37729
             82  C 10  S      1.99778     1.98816
             83  C 10  S      0.70015     0.54002
             84  C 10  X      0.52923     0.48687
             85  C 10  Y      0.76025     0.70503
             86  C 10  Z      0.74152     0.69194
             87  C 10  S      0.43147     0.36454
             88  C 10  X      0.46106     0.49870
             89  C 10  Y      0.28358     0.37174
             90  C 10  Z      0.15995     0.37732
             91  C 11  S      1.99776     1.98917
             92  C 11  S      0.69617     0.54935
             93  C 11  X      0.52287     0.48756
             94  C 11  Y      0.75087     0.68727
             95  C 11  Z      0.74264     0.68776
             96  C 11  S      0.49213     0.40006
             97  C 11  X      0.48132     0.51649
             98  C 11  Y      0.32386     0.41730
             99  C 11  Z      0.20434     0.38989
            100  C 12  S      1.99776     1.98917
            101  C 12  S      0.69623     0.54940
            102  C 12  X      0.52267     0.48739
            103  C 12  Y      0.75093     0.68732
            104  C 12  Z      0.74271     0.68782
            105  C 12  S      0.49215     0.40006
            106  C 12  X      0.48109     0.51625
            107  C 12  Y      0.32383     0.41729
            108  C 12  Z      0.20439     0.38991
            109  C 13  S      1.99775     1.98907
            110  C 13  S      0.69930     0.55076
            111  C 13  X      0.52604     0.49189
            112  C 13  Y      0.75649     0.70493
            113  C 13  Z      0.73349     0.66713
            114  C 13  S      0.43363     0.39516
            115  C 13  X      0.47604     0.51179
            116  C 13  Y      0.15551     0.36399
            117  C 13  Z      0.38179     0.43482
            118  C 14  S      1.99775     1.98907
            119  C 14  S      0.69921     0.55070
            120  C 14  X      0.52625     0.49205
            121  C 14  Y      0.75641     0.70487
            122  C 14  Z      0.73342     0.66707
            123  C 14  S      0.43370     0.39517
            124  C 14  X      0.47646     0.51218
            125  C 14  Y      0.15556     0.36401
            126  C 14  Z      0.38180     0.43483
            127  H 15  S      0.53532     0.51445
            128  H 15  S      0.25438     0.36184
            129  H 16  S      0.53532     0.51444
            130  H 16  S      0.25433     0.36182
            131  H 17  S      0.53476     0.51436
            132  H 17  S      0.24849     0.36391
            133  H 18  S      0.53455     0.51411
            134  H 18  S      0.24747     0.36328
            135  H 19  S      0.53532     0.51444
            136  H 19  S      0.25433     0.36182
            137  H 20  S      0.53532     0.51445
            138  H 20  S      0.25438     0.36184
            139  H 21  S      0.53608     0.51486
            140  H 21  S      0.26189     0.36066
            141  H 22  S      0.53608     0.51486
            142  H 22  S      0.26187     0.36065
            143  H 23  S      0.53608     0.51486
            144  H 23  S      0.26187     0.36065
            145  H 24  S      0.53608     0.51486
            146  H 24  S      0.26189     0.36066

          ----- MULLIKEN ATOMIC OVERLAP POPULATIONS -----
          (OFF-DIAGONAL ELEMENTS NEED TO BE MULTIPLIED BY 2)

             1           2           3           4           5

    1    4.9612792
    2    0.0079132   5.0420495
    3   -0.0413460  -0.0289229   4.9617646
    4   -0.0287248  -0.0666508   0.0079131   5.0444045
    5    0.5623322  -0.0003121  -0.0572119   0.0034909   4.9999245
    6   -0.0002907   0.4590957   0.0036501  -0.0285753   0.0000804
    7   -0.0571814   0.0034761   0.5628811  -0.0003136   0.4497479
    8    0.0036735  -0.0289023  -0.0002894   0.4545225  -0.0003350
    9   -0.0269202   0.4590961   0.4219158  -0.0285750  -0.0249803
   10    0.4232472  -0.0289022  -0.0269145   0.4545215  -0.0514821
   11    0.0000003   0.0034761   0.0000014  -0.0003136  -0.0000000
   12    0.0000013  -0.0003121   0.0000003   0.0034909   0.0000000
   13   -0.0000148  -0.0289229  -0.0000767   0.0079132   0.0000003
   14   -0.0000768   0.0079132  -0.0000148  -0.0287253   0.0000013
   15    0.0000016  -0.0001433  -0.0000000   0.0033509   0.0000000
   16    0.0003007   0.0033433   0.3713129  -0.0001434   0.0020150
   17    0.0033303   0.0006516  -0.0001685   0.3647242   0.0001502
   18   -0.0001682   0.3643327   0.0033401   0.0006503   0.0000221
   19   -0.0000000   0.0033434   0.0000016  -0.0001434   0.0000000
   20    0.3713161  -0.0001433   0.0003011   0.0033510  -0.0191324
   21    0.0000000  -0.0001050  -0.0000000  -0.0000036  -0.0000000
   22   -0.0204160  -0.0000036   0.0023110  -0.0001050   0.3718374
   23   -0.0000000  -0.0000036   0.0000000  -0.0001050   0.0000000
   24    0.0023105  -0.0001050  -0.0204036  -0.0000036  -0.0243912

             6           7           8           9          10

    6    4.9658048
    7   -0.0003339   4.9994246
    8    0.4699407   0.0000801   4.9701468
    9   -0.0461591  -0.0513780  -0.0219371   4.9658045
   10   -0.0219372  -0.0250053  -0.0459128   0.4699410   4.9701501
   11   -0.0513779   0.0000000  -0.0250054  -0.0003339   0.0000801
   12   -0.0249802  -0.0000000  -0.0514819   0.0000804  -0.0003350
   13    0.4219162   0.0000014  -0.0269143   0.0036501  -0.0002894
   14   -0.0269204   0.0000003   0.4232483  -0.0002907   0.0036735
   15    0.0012594   0.0000000  -0.0342270   0.0000117   0.0001676
   16    0.0001675  -0.0191024   0.0000117  -0.0342444   0.0012610
   17    0.0010435   0.0000221  -0.0262969   0.0010435  -0.0262977
   18   -0.0261732   0.0001497   0.0010367  -0.0261731   0.0010367
   19   -0.0342442   0.0000000   0.0012610   0.0001675   0.0000117
   20    0.0000117   0.0020143   0.0001676   0.0012593  -0.0342269
   21    0.0019413   0.0000000   0.0002560   0.0000019   0.0000000
   22    0.0000000  -0.0243839   0.0000019   0.0002560   0.0019435
   23    0.0002560  -0.0000000   0.0019435   0.0000000   0.0000019
   24    0.0000019   0.3718502   0.0000000   0.0019413   0.0002559

            11          12          13          14          15

   11    4.9994253
   12    0.4497486   4.9999230
   13    0.5628800  -0.0572120   4.9617659
   14   -0.0571815   0.5623320  -0.0413460   4.9612789
   15    0.0020143  -0.0191326   0.0003011   0.3713162   0.4622968
   16    0.0000000   0.0000000   0.0000016  -0.0000000   0.0000000
   17    0.0000221   0.0001502  -0.0001685   0.0033303   0.0027278
   18    0.0001497   0.0000221   0.0033401  -0.0001682   0.0000011
   19   -0.0191023   0.0020150   0.3713128   0.0003007   0.0000095
   20    0.0000000   0.0000000  -0.0000000   0.0000016   0.0000015
   21    0.3718503  -0.0243910  -0.0204038   0.0023105  -0.0001071
   22   -0.0000000   0.0000000   0.0000000  -0.0000000   0.0000000
   23   -0.0243841   0.3718375   0.0023110  -0.0204160  -0.0001514
   24    0.0000000  -0.0000000  -0.0000000   0.0000000  -0.0000000

            16          17          18          19          20

   16    0.4622496
   17    0.0000011   0.4562575
   18    0.0027222   0.0000142   0.4551722
   19    0.0000015   0.0000011   0.0027222   0.4622484
   20    0.0000095   0.0027278   0.0000011   0.0000000   0.4622956
   21    0.0000000  -0.0000000  -0.0000056  -0.0001530  -0.0000000
   22   -0.0001070  -0.0000056  -0.0000000  -0.0000000  -0.0001514
   23   -0.0000000  -0.0000056  -0.0000000  -0.0001070   0.0000000
   24   -0.0001531  -0.0000000  -0.0000056   0.0000000  -0.0001071

            21          22          23          24

   21    0.4668192
   22    0.0000000   0.4668109
   23   -0.0000345  -0.0000000   0.4668110
   24   -0.0000000  -0.0000345   0.0000000   0.4668191

          TOTAL MULLIKEN AND LOWDIN ATOMIC POPULATIONS
       ATOM         MULL.POP.    CHARGE          LOW.POP.     CHARGE
    1 C             6.160567   -0.160567         6.109953   -0.109953
    2 C             6.171262   -0.171262         6.101539   -0.101539
    3 C             6.160045   -0.160045         6.109530   -0.109530
    4 C             6.165950   -0.165950         6.099427   -0.099427
    5 C             6.211757   -0.211757         6.124609   -0.124609
    6 C             6.064177   -0.064177         6.024855   -0.024855
    7 C             6.211949   -0.211949         6.124855   -0.124855
    8 C             6.064988   -0.064988         6.024309   -0.024309
    9 C             6.064177   -0.064177         6.024855   -0.024855
   10 C             6.064989   -0.064989         6.024309   -0.024309
   11 C             6.211949   -0.211949         6.124855   -0.124855
   12 C             6.211756   -0.211756         6.124609   -0.124609
   13 C             6.160045   -0.160045         6.109530   -0.109530
   14 C             6.160567   -0.160567         6.109953   -0.109953
   15 H             0.789698    0.210302         0.876296    0.123704
   16 H             0.789647    0.210353         0.876256    0.123744
   17 H             0.783254    0.216746         0.878273    0.121727
   18 H             0.782019    0.217981         0.877397    0.122603
   19 H             0.789646    0.210354         0.876255    0.123745
   20 H             0.789697    0.210303         0.876295    0.123705
   21 H             0.797976    0.202024         0.875513    0.124487
   22 H             0.797954    0.202046         0.875508    0.124492
   23 H             0.797954    0.202046         0.875508    0.124492
   24 H             0.797975    0.202025         0.875513    0.124487

          ---------------------
          ELECTROSTATIC MOMENTS
          ---------------------

 POINT   1           X           Y           Z (BOHR)    CHARGE
                 0.000000   -0.000000    0.000000       -0.00 (A.U.)
         DX          DY          DZ         /D/  (DEBYE)
     0.000000   -0.000001   -0.003709    0.003709
 ...... END OF PROPERTY EVALUATION ......
 STEP CPU TIME =     0.02 TOTAL CPU TIME =          3.5 (      0.1 MIN)
 TOTAL WALL CLOCK TIME=          3.5 SECONDS, CPU UTILIZATION IS    99.90%
               937334  WORDS OF DYNAMIC MEMORY USED
 EXECUTION OF GAMESS TERMINATED NORMALLY 10:34:32 06-MAY-2024    
 DDI: 263640 bytes (0.3 MB / 0 MWords) used by master data server.

 ----------------------------------------
 CPU timing information for all processes
 ========================================
 0: 2.972 + 0.492 = 3.465
 ----------------------------------------
 ddikick.x: exited gracefully.
----- accounting info -----
Files used on the master node vista were:
-rw-r--r-- 1 humbel users    116009 May  6 10:34 /scratch/humbel.257403/AAntr_CSF.F05
-rw-r--r-- 1 humbel users 214759088 May  6 10:34 /scratch/humbel.257403/AAntr_CSF.F08
-rw-r--r-- 1 humbel users    265872 May  6 10:34 /scratch/humbel.257403/AAntr_CSF.F09
-rw-r--r-- 1 humbel users   4155440 May  6 10:34 /scratch/humbel.257403/AAntr_CSF.F10
-rw-r--r-- 1 humbel users    275200 May  6 10:34 /scratch/humbel.257403/AAntr_CSF.F11
-rw-r--r-- 1 humbel users       248 May  6 10:34 /scratch/humbel.257403/AAntr_CSF.F12
-rw-r--r-- 1 humbel users    180048 May  6 10:34 /scratch/humbel.257403/AAntr_CSF.F13
-rw-r--r-- 1 humbel users    400008 May  6 10:34 /scratch/humbel.257403/AAntr_CSF.F14
-rw-r--r-- 1 humbel users    189432 May  6 10:34 /scratch/humbel.257403/AAntr_CSF.F15
-rw-r--r-- 1 humbel users    189432 May  6 10:34 /scratch/humbel.257403/AAntr_CSF.F16
-rw-r--r-- 1 humbel users         0 May  6 10:34 /scratch/humbel.257403/AAntr_CSF.F23
Mon May  6 10:34:35 AM CEST 2024
0.0u 0.0s 0:06.62 1.6% 0+0k 232+672io 0pf+0w
