----- GAMESS execution script 'rungms' -----
This job is running on host muhka
under operating system Linux at Tue Apr 30 12:23:59 AM CEST 2024
Available scratch disk space (Kbyte units) at beginning of the job is
Filesystem                        1K-blocks     Used  Available Use% Mounted on
/dev/mapper/vg--ctom-lv--scratch 1057840472 19313948 1038526524   2% /scratch
GAMESS temporary binary files will be written to /scratch/humbel.257276
GAMESS supplementary output files will be written to /home/humbel/di-aude/gamess/audeprog
Copying input file ./acro_cas.inp to your run's scratch directory...

 Distributed Data Interface kickoff program.
 Initiating 1 compute processes on 1 nodes to run the following command:
 /home/humbel/fuming/softwares/gamess/2020-R2/gamess.xmvb.x acro_cas 

          *******************************************************
          *                                                     *
          *          GAMESS VERSION = 30 SEP 2020 (R2)          *
          *                                                     *
          *              doi.org/10.1063/5.0005188              *
          *                                                     *
          **************** 64 BIT LINUX VERSION *****************

  GAMESS HAS BEEN MADE POSSIBLE WITH IMPORTANT CONTRIBUTIONS FROM
  THE FOLLOWING INDIVIDUALS (IN ALPHABETICAL ORDER):

     IVANA ADAMOVIC, CHRISTINE AIKENS, TOMOKO AKAMA,
     YURI ALEXEEV, YURIKO AOKI, POOJA ARORA, TOSHIO ASADA,
     ANDREY ASADCHEV, KIM K. BALDRIDGE, PRADIPTA BANDYOPADHYAY,
     MARIA BARYSZ, ROB BELL, JONATHAN BENTZ, COLLEEN BERTONI,
     JERRY A. BOATZ, BRETT BODE, KURT BRORSEN, KURT R. BRORSEN,
     LAIMUTIS BYTAUTAS, CALEB CARLIN, LAURA CARRINGTON,
     GALINA CHABAN, BENOIT CHAMPAGNE, WEI CHEN, MAHITO CHIBA,
     DAN CHIPMAN, CHEOL HO CHOI, TANNER CULPITT,
     DIPAYAN DATTA, PAUL DAY, ALBERT DEFUSCO,
     NUWAN DESILVA, J. EMILIANO DEUSTUA,
     TIM DUDLEY, MICHEL DUPUIS, STEVEN T. ELBERT,
     DMITRI FEDOROV, ALEX FINDLATER, GRAHAM FLETCHER,
     MARK FREITAG, CHRISTIAN FRIEDL, DAVID GARMER,
     IGOR S. GERASIMOV, KURT GLAESEMANN, MARK S. GORDON,
     JEFFREY GOUR, FENG LONG GU, EMILIE B. GUIDEZ,
     ANASTASIA GUNINA, SHARON HAMMES-SCHIFFER, MASATAKE HARUTA,
     KIMIHIKO HIRAO, YASUHIRO IKABATA, TZVETELIN IORDANOV,
     STEPHAN IRLE, KAZUYA ISHIMURA, JOE IVANIC, FRANK JENSEN,
     JAN H. JENSEN, VISVALDAS KAIRYS, MUNEAKI KAMIYA,
     MICHIO KATOUDA, NAOAKI KAWAKAMI, DAN KEMP, BERNARD KIRTMAN,
     KAZUO KITAURA, MARIUSZ KLOBUKOWSKI, MASATO KOBAYASHI,
     PRAKASHAN KORAMBATH, JACEK KORCHOWIEC, SHIRO KOSEKI,
     KAROL KOWALSKI, JIMMY KROMANN, STANISLAW KUCHARSKI,
     HENRY KURTZ, SAROM SOK LEANG, HUI LI, SHUHUA LI, WEI LI,
     JESSE LUTZ, ALEKSANDR O. LYKHIN, MARCIN MAKOWSKI,
     JOANI MATO, NIKITA MATSUNAGA, BENEDETTA MENNUCCI,
     GRANT MERRILL, NORIYUKI MINEZAWA, VLADIMIR MIRONOV,
     EISAKU MIYOSHI, JOHN A. MONTGOMERY JR., HIROTOSHI MORI,
     JONATHAN MULLIN, MONIKA MUSIAL, SHIGERU NAGASE,
     TAKESHI NAGATA, HIROMI NAKAI, TAKAHITO NAKAJIMA,
     YUYA NAKAJIMA, HARUYUKI NAKANO, HIROYA NAKATA, SEAN NEDD,
     HEATHER NETZLOFF, KIET A. NGUYEN, YOSHIO NISHIMOTO,
     BOSILJKA NJEGIC, RYAN OLSON, MIKE PAK, ROBERTO PEVERATI,
     BUU PHAM, PIOTR PIECUCH, ANNA POMOGAEVA, DAVID POOLE,
     SPENCER PRUITT, OLIVIER QUINET, LUKE ROSKOP,
     KLAUS RUEDENBERG, ANDREW SAND, TOSAPORN SATTASATHUCHANA,
     NOZOMI SAWADA, MICHAEL W. SCHMIDT, PATRICK E. SCHNEIDER,
     JUNJI SEINO, PRACHI SHARMA, JUN SHEN, JIM SHOEMAKER,
     YINAN SHU, DEJUN SI, JONATHAN SKONE, LYUDMILA SLIPCHENKO,
     TONY SMITH, JIE SONG, MARK SPACKMAN, CASPER STEINMANN,
     WALT STEVENS, PEIFENG SU, SHUJUN SU, CHET SWALINA,
     TETSUYA TAKETSUGU, ZHEN TAO, NANDUN THELLAMUREGE
     SEIKEN TOKURA, JACOPO TOMASI, TSUGUKI TOUMA, TAKAO TSUNEDA,
     HIROAKI UMEDA, JORGE LUIS GALVEZ VALLEJO, YALI WANG,
     SIMON WEBB, AARON WEST, THERESA L. WINDUS, MARTA WLOCH,
     PENG XU, KIYOSHI YAGI, SUSUMU YANAGISAWA, YANG YANG,
     SOOHAENG YOO, TAKESHI YOSHIKAWA, FEDERICO ZAHARIEV,
     TOBY ZENG

  WHO ARE SUPPORTED BY THEIR INSTITUTION/UNIVERSITY/COMPANY/GROUP
  (IN ALPHABETICAL ORDER):

     EP ANALYTICS, FACULTES UNIVERSITAIRES NOTRE-DAME DE LA PAIX,
     INSTITUTE FOR MOLECULAR SCIENCE, IOWA STATE UNIVERSITY,
     JACKSON STATE UNIVERSITY, JOHANNES KEPLER UNIVERSITY LINZ,
     KYUSHU UNIVERSITY, MICHIGAN STATE UNIVERSITY,
     MIE UNIVERSITY, MOSCOW STATE UNIVERSITY,
     N. COPERNICUS UNIVERSITY, NAGOYA UNIVERSITY,
     NANJING UNIVERSITY, NAT. INST. OF ADVANCED INDUSTRIAL
     SCIENCE AND TECHNOLOGY, NATIONAL INST. OF STANDARDS AND
     TECHNOLOGY, NESMEYANOV INSTITUTE OF ORGANOELEMENT COMPOUNDS
     OF RUSSIAN ACADEMY OF SCIENCES, OSAKA PREFECTURE UNIVERSITY,
     PENNSYLVANIA STATE UNIVERSITY, TOKYO INSTITUTE OF TECHNOLOGY,
     UNIVERSITY OF AARHUS, UNIVERSITY OF ALBERTA,
     UNIVERSITY OF CALIFORNIA AT SANTA BARBARA,
     UNIVERSITY OF COPENHAGEN, UNIVERSITY OF IOWA,
     UNIVERSITY OF MEMPHIS, UNIVERSITY OF MINNESOTA,
     UNIVERSITY OF NEBRASKA, UNIVERSITY OF NEW ENGLAND,
     UNIVERSITY OF NOTRE DAME, UNIVERSITY OF PISA,
     UNIVERSITY OF SILESIA, UNIVERSITY OF TOKYO,
     UNIVERSITY OF ZURICH, WASEDA UNIVERSITY, YALE UNIVERSITY

  GAMESS SOFTWARE MANAGEMENT TEAM FOR THIS RELEASE:
     MARK S. GORDON (TEAM LEAD),
     BRETT BODE (SENIOR ADVISOR),
     GIUSEPPE BARCA,
     COLLEEN BERTONI,
     KRISTOPHER KEIPERT (ADVISOR),
     SAROM S. LEANG (DEVELOPMENT LEAD),
     BUU PHAM,
     JORGE LUIS GALVEZ VALLEJO (WEBSITE ADMINISTRATOR),
     PENG XU

 EXECUTION OF GAMESS BEGUN 00:23:59 30-APR-2024    

            ECHO OF THE FIRST FEW INPUT CARDS -
 INPUT CARD>!   File created by MacMolPlt 7.4.3                                             
 INPUT CARD>! $CONTRL SCFTYP=NONE CITYP=ALDET RUNTYP=ENERGY                                 
 INPUT CARD> $CONTRL SCFTYP=MCSCF  RUNTYP=ENERGY MAXIT=200 MULT=1                           
 INPUT CARD>   MAXIT=90  MULT=1  VBTYP=NONE  $END                                           
 INPUT CARD>! $CONTRL SCFTYP=RHF  RUNTYP=ENERGY MAXIT=200 MULT=1                            
 INPUT CARD> $CIDET                                                                         
 INPUT CARD>  NCORE=13 NACT=4 NELS=4 ISTSYM=1 NSTATE=1                                      
 INPUT CARD>  WSTATE(1)=1.0,0.0,0.0                                                         
 INPUT CARD> $END                                                                           
 INPUT CARD> $SYSTEM TIMLIM=525600 MEMORY=1000000 $END                                      
 INPUT CARD> $BASIS GBASIS=N31 NGAUSS=6 NDFUNC=1 $END                                       
 INPUT CARD> $GUESS GUESS=MOREAD NORB=17 $END                                               
 INPUT CARD> $GUESS NORDER=1 IORDER(12)=13,14,12 $END                                       
 INPUT CARD>                                                                                
 INPUT CARD> $SCF DIRSCF=.TRUE. $END                                                        
 INPUT CARD> $DET                                                                           
 INPUT CARD> PRTTOL=0.  NCORE=13  NACT=4 NELS=4 ISTSYM=1                                    
 INPUT CARD>! PRTTOL=0.  NCORE=7  NACT=2 NELS=2 ISTSYM=6                                    
 INPUT CARD> $END                                                                           
 INPUT CARD>                                                                                
 INPUT CARD> $DATA                                                                          
 INPUT CARD>                                                                                
 INPUT CARD>  C1                                                                            
 INPUT CARD>C 6. 0.000000     1.209467     1.295575                                         
 INPUT CARD>C 6. 0.00000     0.000000     0.718809                                          
 INPUT CARD>C 6. 0.000000     -0.148676    -0.750912                                        
 INPUT CARD>O 8. 0.000000     -1.214692    -1.329532                                        
 INPUT CARD>H 1.0  0.000000     1.336176     2.380594                                       
 INPUT CARD>H 1.0  0.000000     2.121140     0.688472                                       
 INPUT CARD>H 1.0  0.000000     -0.927519     1.299734                                      
 INPUT CARD>H 1.0  0.000000     0.822993    -1.313379                                       
 INPUT CARD> $END                                                                           
 INPUT CARD> $VEC                                                                           
 INPUT CARD> 1  1 1.67123685E-05-2.51819572E-06 0.00000000E+00-3.80222559E-05-2.27469034E-05
 INPUT CARD> 1  2-1.28580566E-04 0.00000000E+00 3.14915390E-05 1.24525059E-04 1.58531154E-05
 INPUT CARD> 1  3 2.25295528E-05-1.78602761E-05 0.00000000E+00 0.00000000E+00-1.94195983E-06
 INPUT CARD> 1  4-8.72484638E-06 2.74622499E-05 0.00000000E+00-3.68447625E-06-3.87768774E-06
 INPUT CARD> 1  5-2.45965434E-05 0.00000000E+00-1.27363103E-05 6.17906131E-05-1.84586555E-05
 INPUT CARD> 1  6-1.96174352E-05 6.98800981E-06 0.00000000E+00 0.00000000E+00-7.21079312E-05
 INPUT CARD> 1  7-9.08516072E-06 4.58873707E-04 0.00000000E+00 8.66149261E-05 6.59549666E-05
 INPUT CARD> 1  8-3.27090467E-04 0.00000000E+00 5.69708978E-04 3.34710406E-04-2.63996112E-05
 INPUT CARD> 1  9-6.32908586E-04-2.26598993E-04 0.00000000E+00 0.00000000E+00-3.71631312E-04
 INPUT CARD> 1 10 9.94695733E-01 2.09381821E-02 0.00000000E+00 1.37099627E-03 7.39296256E-04
 INPUT CARD> 1 11 4.65438993E-03 0.00000000E+00 4.06729090E-05-3.21466528E-06-4.20108804E-03
 INPUT CARD> 1 12-3.63762189E-03-3.82241290E-03 0.00000000E+00 0.00000000E+00 1.58679424E-04
 INPUT CARD> 1 13-2.31755597E-05-7.29729143E-05-1.98392274E-06-6.16821929E-06 1.68086453E-05
 INPUT CARD> 1 14-1.57131450E-05-3.67350935E-05-1.36901909E-04                              
 INPUT CARD> 2  1 2.49011371E-03 1.39816798E-05 0.00000000E+00 1.03240537E-04 1.90429388E-04
 INPUT CARD> 2  2 9.37102742E-05 0.00000000E+00 1.04037923E-05-7.55040953E-04-1.40562764E-04
 INPUT CARD> 2  3 8.39268610E-05 4.13794963E-05 0.00000000E+00 0.00000000E+00 3.44011447E-05
    1000000 WORDS OF MEMORY AVAILABLE

     BASIS OPTIONS
     -------------
     GBASIS=N31          IGAUSS=       6      POLAR=POPN31  
     NDFUNC=       1     NFFUNC=       0     DIFFSP=       F
     NPFUNC=       0      DIFFS=       F     BASNAM=        


     RUN TITLE
     ---------
                                                                                 

 THE POINT GROUP OF THE MOLECULE IS C1      
 THE ORDER OF THE PRINCIPAL AXIS IS     0

 ATOM      ATOMIC                      COORDINATES (BOHR)
           CHARGE         X                   Y                   Z
 C           6.0     0.0000000000        2.2855612212        2.4482817465
 C           6.0     0.0000000000        0.0000000000        1.3583520475
 C           6.0     0.0000000000       -0.2809569010       -1.4190179209
 O           8.0     0.0000000000       -2.2954350395       -2.5124511719
 H           1.0     0.0000000000        2.5250065114        4.4986703480
 H           1.0     0.0000000000        4.0083733816        1.3010234302
 H           1.0     0.0000000000       -1.7527567584        2.4561411169
 H           1.0     0.0000000000        1.5552312598       -2.4819264280

          INTERNUCLEAR DISTANCES (ANGS.)
          ------------------------------

                1 C          2 C          3 C          4 O          5 H     

   1 C       0.0000000    1.3399513 *  2.4561477 *  3.5731966    1.0923925 *
   2 C       1.3399513 *  0.0000000    1.4772218 *  2.3814234 *  2.1323451 *
   3 C       2.4561477 *  1.4772218 *  0.0000000    1.2129267 *  3.4657056  
   4 O       3.5731966    2.3814234 *  1.2129267 *  0.0000000    4.5024396  
   5 H       1.0923925 *  2.1323451 *  3.4657056    4.5024396    0.0000000  
   6 H       1.0953181 *  2.1213569 *  2.6877297 *  3.8987325    1.8653271 *
   7 H       2.1369900 *  1.0944247 *  2.1935691 *  2.6449023 *  2.5085002 *
   8 H       2.6374236 *  2.1925112 *  1.1227243 *  2.0377490 *  3.7294495  

                6 H          7 H          8 H     

   1 C       1.0953181 *  2.1369900 *  2.6374236 *
   2 C       2.1213569 *  1.0944247 *  2.1925112 *
   3 C       2.6877297 *  2.1935691 *  1.1227243 *
   4 O       3.8987325    2.6449023 *  2.0377490 *
   5 H       1.8653271 *  2.5085002 *  3.7294495  
   6 H       0.0000000    3.1093348    2.3859156 *
   7 H       3.1093348    0.0000000    3.1452586  
   8 H       2.3859156 *  3.1452586    0.0000000  

  * ... LESS THAN  3.000


     ATOMIC BASIS SET
     ----------------
 THE CONTRACTED PRIMITIVE FUNCTIONS HAVE BEEN UNNORMALIZED
 THE CONTRACTED BASIS FUNCTIONS ARE NOW NORMALIZED TO UNITY

  SHELL TYPE  PRIMITIVE        EXPONENT          CONTRACTION COEFFICIENT(S)

 C         

      1   S       1          3047.5248800    0.001834737132
      1   S       2           457.3695180    0.014037322813
      1   S       3           103.9486850    0.068842622264
      1   S       4            29.2101553    0.232184443216
      1   S       5             9.2866630    0.467941348435
      1   S       6             3.1639270    0.362311985337

      2   L       7             7.8682723   -0.119332419775    0.068999066591
      2   L       8             1.8812885   -0.160854151696    0.316423960957
      2   L       9             0.5442493    1.143456437840    0.744308290898

      3   L      10             0.1687145    1.000000000000    1.000000000000

      4   D      11             0.8000000    1.000000000000

 C         

      5   S      12          3047.5248800    0.001834737132
      5   S      13           457.3695180    0.014037322813
      5   S      14           103.9486850    0.068842622264
      5   S      15            29.2101553    0.232184443216
      5   S      16             9.2866630    0.467941348435
      5   S      17             3.1639270    0.362311985337

      6   L      18             7.8682723   -0.119332419775    0.068999066591
      6   L      19             1.8812885   -0.160854151696    0.316423960957
      6   L      20             0.5442493    1.143456437840    0.744308290898

      7   L      21             0.1687145    1.000000000000    1.000000000000

      8   D      22             0.8000000    1.000000000000

 C         

      9   S      23          3047.5248800    0.001834737132
      9   S      24           457.3695180    0.014037322813
      9   S      25           103.9486850    0.068842622264
      9   S      26            29.2101553    0.232184443216
      9   S      27             9.2866630    0.467941348435
      9   S      28             3.1639270    0.362311985337

     10   L      29             7.8682723   -0.119332419775    0.068999066591
     10   L      30             1.8812885   -0.160854151696    0.316423960957
     10   L      31             0.5442493    1.143456437840    0.744308290898

     11   L      32             0.1687145    1.000000000000    1.000000000000

     12   D      33             0.8000000    1.000000000000

 O         

     13   S      34          5484.6716600    0.001831074430
     13   S      35           825.2349460    0.013950172200
     13   S      36           188.0469580    0.068445078098
     13   S      37            52.9645000    0.232714335992
     13   S      38            16.8975704    0.470192897984
     13   S      39             5.7996353    0.358520852987

     14   L      40            15.5396162   -0.110777549525    0.070874268231
     14   L      41             3.5999336   -0.148026262701    0.339752839147
     14   L      42             1.0137618    1.130767015354    0.727158577316

     15   L      43             0.2700058    1.000000000000    1.000000000000

     16   D      44             0.8000000    1.000000000000

 H         

     17   S      45            18.7311370    0.033494604338
     17   S      46             2.8253944    0.234726953484
     17   S      47             0.6401217    0.813757326146

     18   S      48             0.1612778    1.000000000000

 H         

     19   S      49            18.7311370    0.033494604338
     19   S      50             2.8253944    0.234726953484
     19   S      51             0.6401217    0.813757326146

     20   S      52             0.1612778    1.000000000000

 H         

     21   S      53            18.7311370    0.033494604338
     21   S      54             2.8253944    0.234726953484
     21   S      55             0.6401217    0.813757326146

     22   S      56             0.1612778    1.000000000000

 H         

     23   S      57            18.7311370    0.033494604338
     23   S      58             2.8253944    0.234726953484
     23   S      59             0.6401217    0.813757326146

     24   S      60             0.1612778    1.000000000000

 TOTAL NUMBER OF BASIS SET SHELLS             =   24
 NUMBER OF CARTESIAN GAUSSIAN BASIS FUNCTIONS =   68
 NUMBER OF ELECTRONS                          =   30
 CHARGE OF MOLECULE                           =    0
 SPIN MULTIPLICITY                            =    1
 NUMBER OF OCCUPIED ORBITALS (ALPHA)          =   15
 NUMBER OF OCCUPIED ORBITALS (BETA )          =   15
 TOTAL NUMBER OF ATOMS                        =    8
 THE NUCLEAR REPULSION ENERGY IS      102.6894631254

     $CONTRL OPTIONS
     ---------------
 SCFTYP=MCSCF        RUNTYP=ENERGY       EXETYP=RUN     
 MPLEVL=       0     CITYP =NONE         CCTYP =NONE         VBTYP =NONE    
 DFTTYP=NONE         TDDFT =NONE    
 MULT  =       1     ICHARG=       0     NZVAR =       0     COORD =UNIQUE  
 PP    =NONE         RELWFN=NONE         LOCAL =NONE         NUMGRD=       F
 ISPHER=      -1     NOSYM =       0     MAXIT =      90     UNITS =ANGS    
 PLTORB=       F     MOLPLT=       F     AIMPAC=       F     FRIEND=        
 NPRINT=       7     IREST =       0     GEOM  =INPUT   
 NORMF =       0     NORMP =       0     ITOL  =      20     ICUT  =       9
 INTTYP=BEST         GRDTYP=BEST         QMTTOL= 1.0E-06

     $SYSTEM OPTIONS
     ---------------
  REPLICATED MEMORY=     1000000 WORDS (ON EVERY NODE).
 DISTRIBUTED MEMDDI=           0 MILLION WORDS IN AGGREGATE,
 MEMDDI DISTRIBUTED OVER   1 PROCESSORS IS           0 WORDS/PROCESSOR.
 TOTAL MEMORY REQUESTED ON EACH PROCESSOR=     1000000 WORDS.
 TIMLIM=      525600.00 MINUTES, OR     365.0 DAYS.
 PARALL= F  BALTYP=  DLB     KDIAG=    0  COREFL= F
 MXSEQ2=     300 MXSEQ3=     150  mem10=         0  mem22=         0

 Using Gaussians for PCM contribution to MEP, params: 0.10000E+01 0.10000E-07

          ----------------
          PROPERTIES INPUT
          ----------------

     MOMENTS            FIELD           POTENTIAL          DENSITY
 IEMOM =       1   IEFLD =       0   IEPOT =       0   IEDEN =       0
 WHERE =COMASS     WHERE =NUCLEI     WHERE =NUCLEI     WHERE =NUCLEI  
 OUTPUT=BOTH       OUTPUT=BOTH       OUTPUT=BOTH       OUTPUT=BOTH    
 IEMINT=       0   IEFINT=       0                     IEDINT=       0
                                                       MORB  =       0

     -------------------------------
     INTEGRAL TRANSFORMATION OPTIONS
     -------------------------------
     NWORD  =            0
     CUTOFF = 1.0E-09     MPTRAN =       0
     DIRTRF =       F     AOINTS =DUP     

          ----------------------
          MCSCF INPUT PARAMETERS
          ----------------------
 CONVERGER SELECTION: FOCAS = F  SOSCF = T  FULLNR = F  QUD = F  JACOBI = F
 SECULAR EQUATION METHOD CISTEP = ALDET   
 --- GENERAL INPUT OPTIONS:
 MAXIT =      60  MICIT =       5  ACURCY= 1.000E-05
 DAMP  =   0.000  CANONC=       T  ENGTOL= 1.000E-10
 EKT   =       F  NPUNCH=       2  NWORD =         0
 REGENERATE CI AFTER CONVERGENCE = NONE    
 DIABATIZATION AFTER CONVERGENCE =        F
 --- INPUT FOR SOSCF CONVERGER:
 FORS  =       T  NOFO  =       1

          ----------------------
          INTEGRAL INPUT OPTIONS
          ----------------------
 NOPK  =       1 NORDER=       0 SCHWRZ=       T

     ------------------------------------------
     THE POINT GROUP IS C1 , NAXIS= 0, ORDER= 1
     ------------------------------------------

     DIMENSIONS OF THE SYMMETRY SUBSPACES ARE
 A   =   68

 ..... DONE SETTING UP THE RUN .....
 STEP CPU TIME =     0.04 TOTAL CPU TIME =          0.0 (      0.0 MIN)
 TOTAL WALL CLOCK TIME=          0.0 SECONDS, CPU UTILIZATION IS    94.58%

          ********************
          1 ELECTRON INTEGRALS
          ********************
 TIME TO DO   DIPOLE INTEGRALS=      0.00
 ...... END OF ONE-ELECTRON INTEGRALS ......
 STEP CPU TIME =     0.00 TOTAL CPU TIME =          0.0 (      0.0 MIN)
 TOTAL WALL CLOCK TIME=          0.0 SECONDS, CPU UTILIZATION IS    95.12%

          -------------
          GUESS OPTIONS
          -------------
          GUESS =MOREAD            NORB  =      17          NORDER=       1
          MIX   =       F          PRTMO =       F          PUNMO =       F
          TOLZ  = 1.0E-08          TOLE  = 1.0E-05
          SYMDEN=       F          PURIFY=       F

 INITIAL GUESS ORBITALS GENERATED BY MOREAD   ROUTINE.

 SYMMETRIES FOR INITIAL GUESS ORBITALS FOLLOW.   BOTH SET(S).
    15 ORBITALS ARE OCCUPIED (    4 CORE ORBITALS).
     1=A        2=A        3=A        4=A        5=A        6=A        7=A   
     8=A        9=A       10=A       11=A       12=A       13=A       14=A   
    15=A       16=A       17=A       18=A       19=A       20=A       21=A   
    22=A       23=A       24=A       25=A       26=A       27=A       28=A   
    29=A       30=A       31=A       32=A       33=A       34=A       35=A   
    36=A       37=A       38=A       39=A       40=A       41=A       42=A   
    43=A       44=A       45=A       46=A       47=A       48=A       49=A   
    50=A       51=A       52=A       53=A       54=A       55=A       56=A   
    57=A       58=A       59=A       60=A       61=A       62=A       63=A   
    64=A       65=A       66=A       67=A       68=A   
 ...... END OF INITIAL ORBITAL SELECTION ......
 STEP CPU TIME =     0.00 TOTAL CPU TIME =          0.0 (      0.0 MIN)
 TOTAL WALL CLOCK TIME=          0.1 SECONDS, CPU UTILIZATION IS    95.42%

                    ----------------------
                    AO INTEGRAL TECHNOLOGY
                    ----------------------
     S,P,L SHELL ROTATED AXIS INTEGRALS, REPROGRAMMED BY
        KAZUYA ISHIMURA (IMS) AND JOSE SIERRA (SYNSTAR).
     S,P,D,L SHELL ROTATED AXIS INTEGRALS PROGRAMMED BY
        KAZUYA ISHIMURA (INSTITUTE FOR MOLECULAR SCIENCE).
     S,P,D,F,G SHELL TO TOTAL QUARTET ANGULAR MOMENTUM SUM 5,
        ERIC PROGRAM BY GRAHAM FLETCHER (ELORET AND NASA ADVANCED
        SUPERCOMPUTING DIVISION, AMES RESEARCH CENTER).
     S,P,D,F,G,L SHELL GENERAL RYS QUADRATURE PROGRAMMED BY
        MICHEL DUPUIS (PACIFIC NORTHWEST NATIONAL LABORATORY).

          --------------------
          2 ELECTRON INTEGRALS
          --------------------

 THE -PK- OPTION IS OFF, THE INTEGRALS ARE NOT IN SUPERMATRIX FORM.
 STORING   15000 INTEGRALS/RECORD ON DISK, USING 12 BYTES/INTEGRAL.
 TWO ELECTRON INTEGRAL EVALUATION REQUIRES   90696 WORDS OF MEMORY.
 SCHWARZ INEQUALITY OVERHEAD:      2343 INTEGRALS, T=        0.00
 II,JST,KST,LST =  1  1  1  1 NREC =         1 INTLOC =    1
 II,JST,KST,LST =  2  1  1  1 NREC =         1 INTLOC =    2
 II,JST,KST,LST =  3  1  1  1 NREC =         1 INTLOC =   34
 II,JST,KST,LST =  4  1  1  1 NREC =         1 INTLOC =  214
 II,JST,KST,LST =  5  1  1  1 NREC =         1 INTLOC = 1189
 II,JST,KST,LST =  6  1  1  1 NREC =         1 INTLOC = 2364
 II,JST,KST,LST =  7  1  1  1 NREC =         1 INTLOC = 9259
 II,JST,KST,LST =  8  1  1  1 NREC =         2 INTLOC = 6298
 II,JST,KST,LST =  9  1  1  1 NREC =         4 INTLOC = 7025
 II,JST,KST,LST = 10  1  1  1 NREC =         4 INTLOC =14815
 II,JST,KST,LST = 11  1  1  1 NREC =         7 INTLOC = 9788
 II,JST,KST,LST = 12  1  1  1 NREC =        11 INTLOC = 5673
 II,JST,KST,LST = 13  1  1  1 NREC =        19 INTLOC = 3094
 II,JST,KST,LST = 14  1  1  1 NREC =        20 INTLOC = 6109
 II,JST,KST,LST = 15  1  1  1 NREC =        27 INTLOC = 1737
 II,JST,KST,LST = 16  1  1  1 NREC =        36 INTLOC =14144
 II,JST,KST,LST = 17  1  1  1 NREC =        54 INTLOC = 9971
 II,JST,KST,LST = 18  1  1  1 NREC =        57 INTLOC =10186
 II,JST,KST,LST = 19  1  1  1 NREC =        61 INTLOC =12813
 II,JST,KST,LST = 20  1  1  1 NREC =        65 INTLOC = 8679
 II,JST,KST,LST = 21  1  1  1 NREC =        70 INTLOC = 4184
 II,JST,KST,LST = 22  1  1  1 NREC =        75 INTLOC = 1706
 II,JST,KST,LST = 23  1  1  1 NREC =        80 INTLOC = 5680
 II,JST,KST,LST = 24  1  1  1 NREC =        85 INTLOC =11175
 SCHWARZ INEQUALITY TEST SKIPPED        4668 INTEGRAL BLOCKS.
 TOTAL NUMBER OF NONZERO TWO-ELECTRON INTEGRALS =             1358670
         91 INTEGRAL RECORDS WERE STORED ON DISK FILE  8.
  ...... END OF TWO-ELECTRON INTEGRALS .....
 STEP CPU TIME =     0.21 TOTAL CPU TIME =          0.3 (      0.0 MIN)
 TOTAL WALL CLOCK TIME=          0.3 SECONDS, CPU UTILIZATION IS    98.64%

          -----------------
          MCSCF CALCULATION
          -----------------

 ----- NUCLEAR ENERGY ----- =       102.6894631254

     --------------------------------------------------
          AMES LABORATORY DETERMINANTAL FULL CI
     PROGRAM WRITTEN BY JOE IVANIC AND KLAUS RUEDENBERG
     --------------------------------------------------

 THE POINT GROUP                  =   C1      
 THE STATE SYMMETRY               =   A       
 NUMBER OF CORE ORBITALS          =   13
 NUMBER OF ACTIVE ORBITALS        =    4
 NUMBER OF ALPHA ELECTRONS        =   15 (   2 ACTIVE)
 NUMBER OF BETA ELECTRONS         =   15 (   2 ACTIVE)
 NUMBER OF OCCUPIED ORBITALS      =   17
 NUMBER OF CI STATES REQUESTED    =    1
 NUMBER OF CI STARTING VECTORS    =    1
 MAX. NO. OF CI EXPANSION VECTORS =   10
 SIZE OF INITIAL CI GUESS MATRIX  =  300
 MAX. NO. OF CI ITERS/STATE       =  100
 CI DIAGONALIZATION CRITERION     = 1.00E-05
 PURE SPIN STATE AVERAGED 1E- AND 2E- DENSITY MATRIX OPTION=.T.
 STATE=   1 DM2 WEIGHT=   1.00000

 CORRELATION ENERGY ANALYSIS      =    F

 SYMMETRIES FOR THE  13 CORE,   4 ACTIVE ARE

     CORE= A     A     A     A     A     A     A     A     A     A   
           A     A     A   

   ACTIVE= A     A     A     A   
 OPENING FILE DAFL30 WITH      81 LOGICAL RECORDS OF    4624 WORDS
 WITH A MAXIMUM OF         243 PHYSICAL RECORDS OF    2048 WORDS

          ------------------------------
          CASSCF INTEGRAL TRANSFORMATION
          ------------------------------
 AO INTEGRALS WILL BE READ IN FROM DISK...

 NUMBER OF CORE MOLECULAR ORBITALS     =    13
 NUMBER OF OCCUPIED MOLECULAR ORBITALS =    17
 TOTAL NUMBER OF MOLECULAR ORBITALS    =    68
 TOTAL NUMBER OF ATOMIC ORBITALS       =    68

 ----- CHOOSING THREE STEPS TRANSFORMATION -----
 NUMBER OF WORDS USED      =     733303
 NUMBER OF WORDS AVAILABLE =     999999
 NUMBER OF PASSES          =          1

 ----- NUCLEAR REPULSION ENERGY =    102.68946313
 ----- FROZEN CORE ENERGY       =   -289.71941722

 ... SYMMETRY ...           CPU =    0.00
 ... (PQ|RS) -> (PQ|KL) ... CPU =    0.07
 ... (PQ|KL) -> (IJ|KL) ... CPU =    0.00

 NUMBER OF (PQ|KL) INTEGRALS WRITTEN      14747
 NUMBER OF (IJ|KL) INTEGRALS WRITTEN         55
 ..... END OF CAS INTEGRAL TRANSFORMATION .....
 STEP CPU TIME =     0.08 TOTAL CPU TIME =          0.3 (      0.0 MIN)
 TOTAL WALL CLOCK TIME=          0.3 SECONDS, CPU UTILIZATION IS    98.94%

     --------------------------------------------------
          AMES LABORATORY DETERMINANTAL FULL CI
     PROGRAM WRITTEN BY JOE IVANIC AND KLAUS RUEDENBERG
     --------------------------------------------------

 THE NUMBER OF DETERMINANTS HAVING SPACE SYMMETRY A  
 IN POINT GROUP C1   WITH SZ=  0.0 IS             36
 WHICH INCLUDES             20 CSFS WITH S=  0.0
 WHICH INCLUDES             15 CSFS WITH S=  1.0
 WHICH INCLUDES              1 CSFS WITH S=  2.0
 THE DETERMINANT FULL CI REQUIRES          175290 WORDS
 SMALL CI MATRIX, JUST USING INCORE DIAGONALIZATION...

 CI EIGENVECTORS WILL BE LABELED IN GROUP=C1      
 PRINTING CI COEFFICIENTS LARGER THAN 0.000E+00

 STATE   1  ENERGY=      -190.7902100252  S=  0.00  SZ=  0.00  SPACE SYM=A   

ALPHA |BETA  | CI COEFFICIENT
------|------|---------------
 1100 | 1100 |   0.9769984769
 1010 | 1010 |  -0.2082126369
 1001 | 1001 |  -0.0351958722
 1001 | 1100 |   0.0101120246
 1100 | 1001 |   0.0101120246
 1100 | 1010 |   0.0089978425
 1010 | 1100 |   0.0089978425
 1010 | 1001 |   0.0073890971
 1001 | 1010 |   0.0073890971
 1001 | 0110 |  -0.0073166075
 0110 | 1001 |  -0.0073166075
 0110 | 0110 |  -0.0070153715
 0101 | 0101 |  -0.0067763285
 0110 | 0101 |  -0.0064771421
 0101 | 0110 |  -0.0064771421
 1100 | 0011 |   0.0060934982
 0011 | 1100 |   0.0060934982
 1100 | 0110 |   0.0042120330
 0110 | 1100 |   0.0042120330
 0011 | 0011 |   0.0019713735
 1010 | 0101 |  -0.0012231092
 0101 | 1010 |  -0.0012231092
 1010 | 0110 |  -0.0009312301
 0110 | 1010 |  -0.0009312301
 0110 | 0011 |   0.0008989864
 0011 | 0110 |   0.0008989864
 1010 | 0011 |  -0.0005104866
 0011 | 1010 |  -0.0005104866
 0101 | 1100 |   0.0003399039
 1100 | 0101 |   0.0003399039
 0101 | 0011 |  -0.0003398648
 0011 | 0101 |  -0.0003398648
 1001 | 0011 |  -0.0001035045
 0011 | 1001 |  -0.0001035045
 1001 | 0101 |   0.0000856256
 0101 | 1001 |   0.0000856256
 ..... DONE WITH DETERMINANT CI COMPUTATION .....
 STEP CPU TIME =     0.00 TOTAL CPU TIME =          0.3 (      0.0 MIN)
 TOTAL WALL CLOCK TIME=          0.3 SECONDS, CPU UTILIZATION IS    98.95%

     --------------------------------------------------
      ONE AND TWO PARTICLE DENSITY MATRIX COMPUTATION
     PROGRAM WRITTEN BY JOE IVANIC AND KLAUS RUEDENBERG
     --------------------------------------------------

      30635 WORDS WILL BE USED TO FORM THE DENSITIES
 THE DENSITIES ARE STATE AVERAGED OVER   1 ROOT(S)
 STATE=   1   ENERGY=     -190.7902100252   WEIGHT= 1.00000   S=  0.00
 SIEVING THE A    SYMMETRY NONZERO DENSITY ELEMENTS IN GROUP C1      
         55 NONZERO DM2 ELEMENTS WRITTEN IN       1 RECORDS TO FILE 15
 ..... DONE WITH 1 AND 2 PARTICLE DENSITY MATRIX .....
 STEP CPU TIME =     0.00 TOTAL CPU TIME =          0.3 (      0.0 MIN)
 TOTAL WALL CLOCK TIME=          0.3 SECONDS, CPU UTILIZATION IS    98.95%

          --------------------------------------
          APPROXIMATE SECOND-ORDER MCSCF PROGRAM
          --------------------------------------
          PROGRAM WRITTEN BY G.CHABAN, A.MARQUEZ, AND M.DUPUIS

  NUMBER OF WORDS NEEDED     =      82373
  NUMBER AVAILABLE           =     999999

 ----- GAMMA(IJKL)*(PQ|KL) PRODUCTS ----- CPU TIME =      0.001
 ----- ORBITAL SYMMETRY             ----- CPU TIME =      0.000
 ----- FOCK OPERATORS CONSTRUCTION  ----- CPU TIME =      0.025
 ----- WARNING : CORE-ACTIVE GAP    =    0.42877
     MICIT =   1 ASYMM =    0.001641 ROTMAX =    0.007224
 ----- EFFECTIVE FOCK + ROTATE ORBS ----- CPU TIME =      0.004
     MICIT =   2 ASYMM =    0.001082 ROTMAX =    0.001770
     MICIT =   3 ASYMM =    0.001069 ROTMAX =    0.003712
     MICIT =   4 ASYMM =    0.001052 ROTMAX =    0.005494
     MICIT =   5 ASYMM =    0.001026 ROTMAX =    0.008540
 ..... DONE WITH CASSCF ORBITAL UPDATE .....
 STEP CPU TIME =     0.04 TOTAL CPU TIME =          0.4 (      0.0 MIN)
 TOTAL WALL CLOCK TIME=          0.4 SECONDS, CPU UTILIZATION IS    99.06%

 ITER     TOTAL ENERGY      DEL(E)  LAGRANGIAN ASYMMETRY   SQCDF  MICIT   DAMP
   1     -190.790210025 -0.790210025  0.001641   45   17 7.224E-03  5   0.0000
       ----------START APPROXIMATE SECOND ORDER MCSCF----------
   2     -190.790373325 -0.000163300  0.001284   45   17 4.728E-02  1   0.0000
   3     -190.791851943 -0.001478618  0.004502   45   15 1.125E-01  1   0.0000
   4     -190.789968307  0.001883636  0.001126   45   14 1.491E-02  1   0.0000
   5     -190.789671593  0.000296714  0.001104   66   15 2.377E-01  1   0.0000
   6     -190.788839416  0.000832177  0.005390   49   15 1.956E-02  1   0.0000
   7     -190.788914382 -0.000074966  0.004577   45   14 5.567E-02  1   0.0000
   8     -190.789018728 -0.000104346  0.004347   49   15 3.665E-02  1   0.0000
   9     -190.788920817  0.000097911  0.002158   45   15 1.017E-03  1   0.0000
  10     -190.788918053  0.000002763  0.001195   45   15 4.947E-05  1   0.0000
  11     -190.788919786 -0.000001733  0.001228   45   15 1.579E-03  1   0.0000
  12     -190.788925456 -0.000005670  0.001008   45   14 3.061E-04  1   0.0000
  13     -190.788927294 -0.000001838  0.000676   45   14 3.284E-04  1   0.0000
  14     -190.788928411 -0.000001117  0.000177   45   15 9.949E-06  1   0.0000
  15     -190.788928599 -0.000000188  0.000144   45   14 1.197E-05  1   0.0000
  16     -190.788928709 -0.000000110  0.000134   45   14 1.253E-05  1   0.0000
  17     -190.788928773 -0.000000064  0.000081   45   14 2.254E-06  1   0.0000
  18     -190.788928789 -0.000000016  0.000031   43   15 3.332E-07  1   0.0000
  19     -190.788928794 -0.000000004  0.000018   43   15 3.129E-07  1   0.0000
  20     -190.788928797 -0.000000003  0.000019   43   15 6.502E-07  1   0.0000
  21     -190.788928799 -0.000000002  0.000009   35    5 7.482E-08  1   0.0000

          --------------------
          LAGRANGIAN CONVERGED
          --------------------

 FINAL MCSCF ENERGY IS     -190.7889287991 AFTER  21 ITERATIONS

 -MCCI- BASED ON OPTIMIZED ORBITALS
 ----------------------------------

 PLEASE NOTE: IF THE ACTIVE ORBITALS ARE CANONICALIZED BELOW,
 THE FOLLOWING CI EXPANSION COEFFICIENTS AND THE DENSITY DO NOT
 CORRESPOND TO THE PRINTED ORBITALS.  THE PRINTED EXPANSIONS MATCH
 THE ORBITALS USED DURING THE LAST ITERATION.  IF YOU WISH TO SEE
 CI EXPANSIONS BASED ON THE CANONICAL (OR NATURAL) ORBITALS, YOU
 MUST RUN A CI CALCULATION WITH THAT ORBITAL CHOICE READ IN $VEC.

 CI EIGENVECTORS WILL BE LABELED IN GROUP=C1      
 PRINTING CI COEFFICIENTS LARGER THAN 0.000E+00

 STATE   1  ENERGY=      -190.7889287991  S=  0.00  SZ=  0.00  SPACE SYM=A   

ALPHA |BETA  | CI COEFFICIENT
------|------|---------------
 1100 | 1100 |   0.9769575851
 1010 | 1010 |  -0.2097878102
 1001 | 1001 |  -0.0244360371
 1001 | 1100 |   0.0117548562
 1100 | 1001 |   0.0117548562
 1100 | 1010 |   0.0117326713
 1010 | 1100 |   0.0117326713
 1001 | 1010 |   0.0104633483
 1010 | 1001 |   0.0104633483
 0110 | 0110 |  -0.0068537879
 0101 | 0101 |  -0.0066881874
 0101 | 0110 |   0.0054194962
 0110 | 0101 |   0.0054194962
 1100 | 0110 |   0.0019620910
 0110 | 1100 |   0.0019620910
 0110 | 1001 |  -0.0018505902
 1001 | 0110 |  -0.0018505902
 0011 | 0011 |   0.0015019609
 1100 | 0011 |   0.0014339770
 0011 | 1100 |   0.0014339770
 0110 | 0011 |  -0.0010547523
 0011 | 0110 |  -0.0010547523
 0101 | 1100 |  -0.0006170956
 1100 | 0101 |  -0.0006170956
 1010 | 0101 |  -0.0004166132
 0101 | 1010 |  -0.0004166132
 0101 | 1001 |   0.0003467382
 1001 | 0101 |   0.0003467382
 1010 | 0011 |  -0.0002522395
 0011 | 1010 |  -0.0002522395
 1001 | 0011 |   0.0001852911
 0011 | 1001 |   0.0001852911
 0110 | 1010 |   0.0001794151
 1010 | 0110 |   0.0001794151
 0101 | 0011 |   0.0000442776
 0011 | 0101 |   0.0000442776

 DENSITY MATRIX OVER ACTIVE MO-S

             1           2           3           4

    1    1.9996699
    2   -0.0001393   1.9097756
    3   -0.0037340   0.0182351   0.0886972
    4    0.0010355   0.0226153  -0.0047775   0.0018573

 FORMING THE "STANDARD FOCK OPERATOR" USING INTEGRALS FROM DISK...
    13 FILLED,    4 ACTIVE, AND   51 VIRTUAL ORBITALS  WILL BE CANONICALIZED

          ----------------------
          MCSCF NATURAL ORBITALS
          ----------------------

                      1          2          3          4          5
                  -20.5676   -11.3402   -11.2571   -11.2508    -1.3902
                     A          A          A          A          A   
    1  C  1  S    0.000006  -0.000045   0.987585  -0.126028  -0.003427
    2  C  1  S    0.000036  -0.000256   0.027359  -0.003789   0.008628
    3  C  1  X    0.000000   0.000000  -0.000000   0.000000  -0.000000
    4  C  1  Y   -0.000020   0.000012  -0.000075   0.000218  -0.003767
    5  C  1  Z   -0.000015   0.000150  -0.000096   0.000131  -0.004408
    6  C  1  S   -0.000091  -0.000092  -0.010632   0.005950   0.005884
    7  C  1  X    0.000000   0.000000  -0.000000   0.000000  -0.000000
    8  C  1  Y    0.000037  -0.000025   0.000401  -0.001398  -0.001989
    9  C  1  Z    0.000128  -0.000771   0.000258  -0.001403   0.009683
   10  C  1 XX    0.000014  -0.000125  -0.002558   0.000248   0.000281
   11  C  1 YY    0.000023   0.000083  -0.001787  -0.000155  -0.000078
   12  C  1 ZZ   -0.000015   0.000031  -0.002014  -0.000003   0.000123
   13  C  1 XY    0.000000   0.000000  -0.000000   0.000000  -0.000000
   14  C  1 XZ    0.000000   0.000000  -0.000000   0.000000  -0.000000
   15  C  1 YZ   -0.000003   0.000041   0.000201  -0.000058   0.000234
   16  C  2  S   -0.000001   0.003950   0.125387   0.987671  -0.018081
   17  C  2  S    0.000001   0.000238   0.003243   0.027788   0.033796
   18  C  2  X    0.000000   0.000000  -0.000000   0.000000  -0.000000
   19  C  2  Y    0.000019  -0.000093  -0.000186   0.000301  -0.007297
   20  C  2  Z    0.000007   0.000144  -0.000106  -0.000215  -0.026046
   21  C  2  S   -0.000054   0.002718   0.002267  -0.013638   0.019662
   22  C  2  X    0.000000   0.000000  -0.000000   0.000000  -0.000000
   23  C  2  Y   -0.000006   0.000586   0.001096  -0.001405  -0.009879
   24  C  2  Z    0.000062  -0.001143   0.000831   0.001038  -0.009296
   25  C  2 XX   -0.000017  -0.000147  -0.000394  -0.002428  -0.001700
   26  C  2 YY   -0.000020  -0.000235  -0.000525  -0.001631   0.000138
   27  C  2 ZZ    0.000005  -0.000638  -0.000538  -0.001810   0.007746
   28  C  2 XY    0.000000   0.000000  -0.000000   0.000000  -0.000000
   29  C  2 XZ    0.000000   0.000000  -0.000000   0.000000  -0.000000
   30  C  2 YZ   -0.000070  -0.000058   0.000013   0.000236   0.002573
   31  C  3  S   -0.000004   0.995755  -0.000551  -0.004279  -0.113449
   32  C  3  S    0.000448   0.026627  -0.000184  -0.000033   0.216733
   33  C  3  X    0.000000   0.000000  -0.000000   0.000000  -0.000000
   34  C  3  Y    0.000084  -0.000600  -0.000019   0.000041  -0.154706
   35  C  3  Z    0.000044  -0.000183  -0.000014  -0.000098  -0.078132
   36  C  3  S   -0.000340  -0.007429   0.000352   0.004215   0.062746
   37  C  3  X    0.000000   0.000000  -0.000000   0.000000  -0.000000
   38  C  3  Y    0.000572  -0.002843   0.000562   0.000165   0.029017
   39  C  3  Z    0.000329  -0.001658   0.000247   0.001634   0.001789
   40  C  3 XX   -0.000026  -0.002482  -0.000059  -0.000127  -0.016794
   41  C  3 YY   -0.000631  -0.001142  -0.000030  -0.000221   0.021671
   42  C  3 ZZ   -0.000230  -0.001529   0.000005  -0.000643  -0.005751
   43  C  3 XY    0.000000   0.000000  -0.000000   0.000000  -0.000000
   44  C  3 XZ    0.000000   0.000000  -0.000000   0.000000  -0.000000
   45  C  3 YZ   -0.000372   0.000575   0.000051  -0.000016   0.022240
   46  O  4  S    0.994694  -0.000315  -0.000029   0.000022  -0.195628
   47  O  4  S    0.020940   0.000574  -0.000136   0.000018   0.432660
   48  O  4  X    0.000000   0.000000  -0.000000   0.000000  -0.000000
   49  O  4  Y    0.001371   0.000252  -0.000008   0.000024   0.119448
   50  O  4  Z    0.000750   0.000128  -0.000013  -0.000010   0.066668
   51  O  4  S    0.004661  -0.002807   0.000735  -0.000474   0.395443
   52  O  4  X    0.000000   0.000000  -0.000000   0.000000  -0.000000
   53  O  4  Y    0.000041  -0.001553   0.000121  -0.000032   0.045574
   54  O  4  Z    0.000009  -0.000741   0.000167  -0.000220   0.028345
   55  O  4 XX   -0.004203   0.000374  -0.000094  -0.000019  -0.002227
   56  O  4 YY   -0.003637  -0.000053  -0.000098   0.000119   0.013416
   57  O  4 ZZ   -0.003822   0.000114  -0.000045   0.000088   0.002478
   58  O  4 XY    0.000000   0.000000  -0.000000   0.000000  -0.000000
   59  O  4 XZ    0.000000   0.000000  -0.000000   0.000000  -0.000000
   60  O  4 YZ    0.000159  -0.000082   0.000023   0.000002   0.010626
   61  H  5  S   -0.000002   0.000056  -0.000147  -0.000004   0.000109
   62  H  5  S   -0.000064   0.000511   0.001983  -0.000114  -0.005579
   63  H  6  S    0.000019  -0.000133  -0.000126  -0.000100   0.002559
   64  H  6  S    0.000005  -0.000136   0.002040  -0.000621   0.002390
   65  H  7  S   -0.000001  -0.000028  -0.000093  -0.000122   0.006878
   66  H  7  S   -0.000022   0.000280   0.000092   0.001635  -0.000547
   67  H  8  S   -0.000033   0.000001  -0.000065  -0.000100   0.026746
   68  H  8  S   -0.000130   0.002323  -0.000228  -0.000136  -0.011202

                      6          7          8          9         10
                   -1.0785    -0.8790    -0.7788    -0.6647    -0.6579
                     A          A          A          A          A   
    1  C  1  S   -0.138437   0.128341   0.052074  -0.018461  -0.007776
    2  C  1  S    0.262536  -0.247237  -0.099733   0.036183   0.011994
    3  C  1  X    0.000000  -0.000000  -0.000000   0.000000   0.000000
    4  C  1  Y   -0.092475  -0.029227  -0.153000   0.186234   0.208856
    5  C  1  Z   -0.053787  -0.050772   0.011677   0.195797  -0.166033
    6  C  1  S    0.205461  -0.238100  -0.127289   0.063604   0.023167
    7  C  1  X    0.000000  -0.000000  -0.000000   0.000000   0.000000
    8  C  1  Y   -0.007291  -0.019968  -0.047668   0.070813   0.086120
    9  C  1  Z   -0.011189  -0.018977   0.006972   0.092544  -0.079023
   10  C  1 XX   -0.011370   0.010758   0.004976  -0.001689  -0.001589
   11  C  1 YY    0.014031  -0.008507  -0.000870  -0.006122   0.005483
   12  C  1 ZZ    0.006983  -0.013796  -0.012388   0.017686   0.000677
   13  C  1 XY    0.000000  -0.000000  -0.000000   0.000000   0.000000
   14  C  1 XZ    0.000000  -0.000000  -0.000000   0.000000   0.000000
   15  C  1 YZ    0.006262   0.004705   0.008282  -0.008735  -0.011876
   16  C  2  S   -0.158867  -0.046751  -0.094310   0.029932   0.015167
   17  C  2  S    0.304428   0.093865   0.181876  -0.060711  -0.028489
   18  C  2  X    0.000000  -0.000000  -0.000000   0.000000   0.000000
   19  C  2  Y    0.088430  -0.119138  -0.132197  -0.199356   0.026016
   20  C  2  Z    0.003722  -0.186185   0.097861  -0.043873  -0.261407
   21  C  2  S    0.215524   0.086655   0.226227  -0.035933  -0.032810
   22  C  2  X    0.000000  -0.000000  -0.000000   0.000000   0.000000
   23  C  2  Y   -0.002467  -0.039952  -0.044608  -0.068945   0.034579
   24  C  2  Z    0.003372  -0.041338   0.027685  -0.009226  -0.102890
   25  C  2 XX   -0.011919  -0.004249  -0.006843   0.001098   0.000719
   26  C  2 YY    0.013459  -0.007837   0.012752  -0.003984  -0.009148
   27  C  2 ZZ    0.007121   0.019375   0.000933   0.008878   0.005763
   28  C  2 XY    0.000000  -0.000000  -0.000000   0.000000   0.000000
   29  C  2 XZ    0.000000  -0.000000  -0.000000   0.000000   0.000000
   30  C  2 YZ    0.003538  -0.007656  -0.006964  -0.000655   0.003275
   31  C  3  S   -0.053600  -0.118560   0.081518  -0.040179   0.012766
   32  C  3  S    0.110172   0.252105  -0.168903   0.099823  -0.026849
   33  C  3  X    0.000000  -0.000000  -0.000000   0.000000   0.000000
   34  C  3  Y    0.068926   0.100360  -0.155230  -0.261179  -0.032276
   35  C  3  Z    0.113390   0.118988   0.156543   0.024437   0.292540
   36  C  3  S    0.075605   0.210497  -0.177398   0.026173  -0.026121
   37  C  3  X    0.000000  -0.000000  -0.000000   0.000000   0.000000
   38  C  3  Y    0.028107   0.055533  -0.083608  -0.053987  -0.050264
   39  C  3  Z    0.020528   0.026888   0.028165   0.031574   0.093183
   40  C  3 XX   -0.004345  -0.008514   0.006866  -0.004978   0.002986
   41  C  3 YY   -0.004127   0.001172  -0.012676   0.003203  -0.006464
   42  C  3 ZZ    0.015499   0.014091   0.002828  -0.009847   0.003094
   43  C  3 XY    0.000000  -0.000000  -0.000000   0.000000   0.000000
   44  C  3 XZ    0.000000  -0.000000  -0.000000   0.000000   0.000000
   45  C  3 YZ   -0.002819  -0.010645   0.006715   0.005565   0.000206
   46  O  4  S    0.038617   0.067323  -0.038106   0.062017  -0.027510
   47  O  4  S   -0.089160  -0.155440   0.089993  -0.141406   0.061974
   48  O  4  X    0.000000  -0.000000  -0.000000   0.000000   0.000000
   49  O  4  Y   -0.002030   0.072756  -0.150841   0.232703  -0.251064
   50  O  4  Z    0.015311   0.065295   0.055329   0.295929   0.131873
   51  O  4  S   -0.083930  -0.193231   0.115704  -0.253494   0.112113
   52  O  4  X    0.000000  -0.000000  -0.000000   0.000000   0.000000
   53  O  4  Y    0.002686   0.036470  -0.080386   0.129199  -0.142877
   54  O  4  Z    0.006883   0.034896   0.026980   0.171889   0.081470
   55  O  4 XX   -0.000230  -0.001130   0.001611  -0.004986   0.001357
   56  O  4 YY   -0.002647   0.002119  -0.011260   0.010119  -0.019565
   57  O  4 ZZ   -0.000346   0.000174   0.008885   0.008180   0.011933
   58  O  4 XY    0.000000  -0.000000  -0.000000   0.000000   0.000000
   59  O  4 XZ    0.000000  -0.000000  -0.000000   0.000000   0.000000
   60  O  4 YZ    0.000918   0.005543   0.000573   0.020601   0.002728
   61  H  5  S    0.065785  -0.125053  -0.051080   0.145605  -0.071518
   62  H  5  S    0.012369  -0.047643  -0.025111   0.090109  -0.042655
   63  H  6  S    0.071236  -0.099144  -0.117458   0.047086   0.160775
   64  H  6  S    0.010539  -0.035234  -0.063683   0.032491   0.106286
   65  H  7  S    0.073802   0.036926   0.163471   0.051840  -0.105869
   66  H  7  S    0.006065   0.005971   0.079361   0.030435  -0.054621
   67  H  8  S    0.034743   0.103298  -0.174645  -0.084936  -0.101179
   68  H  8  S    0.003275   0.027575  -0.089034  -0.065604  -0.059153

                     11         12         13         14         15
                   -0.5979    -0.5497    -0.4265     1.9997     1.9102
                     A          A          A          A          A   
    1  C  1  S   -0.013604   0.011181  -0.006092   0.000000  -0.000000
    2  C  1  S    0.032611  -0.025154   0.009584   0.000000  -0.000000
    3  C  1  X   -0.000000  -0.000000   0.000000  -0.009300   0.377785
    4  C  1  Y   -0.186848   0.233789  -0.045408   0.000000  -0.000000
    5  C  1  Z   -0.263581  -0.230424  -0.062843   0.000000  -0.000000
    6  C  1  S    0.000176  -0.014892   0.097723   0.000000  -0.000000
    7  C  1  X   -0.000000  -0.000000   0.000000  -0.021264   0.287170
    8  C  1  Y   -0.061909   0.124193  -0.058665   0.000000  -0.000000
    9  C  1  Z   -0.112110  -0.167060  -0.080419   0.000000  -0.000000
   10  C  1 XX    0.000756   0.000175  -0.000679   0.000000  -0.000000
   11  C  1 YY    0.010637   0.018959   0.008898   0.000000  -0.000000
   12  C  1 ZZ   -0.019852  -0.016256  -0.008901   0.000000  -0.000000
   13  C  1 XY   -0.000000  -0.000000   0.000000  -0.001109  -0.019580
   14  C  1 XZ   -0.000000  -0.000000   0.000000  -0.001195  -0.010605
   15  C  1 YZ    0.005184  -0.025790  -0.004692   0.000000  -0.000000
   16  C  2  S   -0.011377  -0.015053   0.033286   0.000000  -0.000000
   17  C  2  S    0.024957   0.026610  -0.061486   0.000000  -0.000000
   18  C  2  X   -0.000000  -0.000000   0.000000   0.042018   0.390135
   19  C  2  Y    0.268534  -0.231116   0.017093   0.000000  -0.000000
   20  C  2  Z    0.069789   0.130092   0.239416   0.000000  -0.000000
   21  C  2  S    0.006514   0.059381  -0.255863   0.000000  -0.000000
   22  C  2  X   -0.000000  -0.000000   0.000000   0.004626   0.287013
   23  C  2  Y    0.106094  -0.132145  -0.090145   0.000000  -0.000000
   24  C  2  Z    0.023036   0.119501   0.147217   0.000000  -0.000000
   25  C  2 XX    0.000282  -0.001088   0.001445   0.000000  -0.000000
   26  C  2 YY    0.006851   0.020400   0.010410   0.000000  -0.000000
   27  C  2 ZZ   -0.013198  -0.011620  -0.011604   0.000000  -0.000000
   28  C  2 XY   -0.000000  -0.000000   0.000000  -0.002278   0.020579
   29  C  2 XZ   -0.000000  -0.000000   0.000000  -0.008807   0.003571
   30  C  2 YZ    0.015402  -0.024254  -0.006660   0.000000  -0.000000
   31  C  3  S    0.004483   0.024333   0.002778   0.000000  -0.000000
   32  C  3  S    0.002762  -0.053225  -0.020860   0.000000  -0.000000
   33  C  3  X   -0.000000  -0.000000   0.000000   0.321941   0.046447
   34  C  3  Y   -0.256613  -0.016399   0.088500   0.000000  -0.000000
   35  C  3  Z   -0.092239  -0.142866  -0.179679   0.000000  -0.000000
   36  C  3  S   -0.079066  -0.038862   0.028692   0.000000  -0.000000
   37  C  3  X   -0.000000  -0.000000   0.000000   0.199834   0.014630
   38  C  3  Y   -0.070249   0.001743   0.086055   0.000000  -0.000000
   39  C  3  Z   -0.009554  -0.045066  -0.006305   0.000000  -0.000000
   40  C  3 XX   -0.003475   0.000134  -0.001754   0.000000  -0.000000
   41  C  3 YY    0.003773  -0.003797   0.043289   0.000000  -0.000000
   42  C  3 ZZ   -0.009154   0.004420  -0.038840   0.000000  -0.000000
   43  C  3 XY   -0.000000  -0.000000   0.000000  -0.031722   0.009781
   44  C  3 XZ   -0.000000  -0.000000   0.000000  -0.014805   0.018376
   45  C  3 YZ    0.025533   0.000839  -0.033766   0.000000  -0.000000
   46  O  4  S    0.033739   0.004584  -0.000296   0.000000  -0.000000
   47  O  4  S   -0.073766  -0.007912  -0.007962   0.000000  -0.000000
   48  O  4  X   -0.000000  -0.000000   0.000000   0.493906  -0.096325
   49  O  4  Y    0.284496   0.128073  -0.254792   0.000000  -0.000000
   50  O  4  Z    0.171968  -0.150792   0.468245   0.000000  -0.000000
   51  O  4  S   -0.170179  -0.031472   0.044628   0.000000  -0.000000
   52  O  4  X   -0.000000  -0.000000   0.000000   0.355779  -0.093001
   53  O  4  Y    0.168535   0.080611  -0.193040   0.000000  -0.000000
   54  O  4  Z    0.098429  -0.107024   0.373113   0.000000  -0.000000
   55  O  4 XX   -0.003579   0.000200  -0.002720   0.000000  -0.000000
   56  O  4 YY    0.014511   0.011046  -0.016473   0.000000  -0.000000
   57  O  4 ZZ    0.002366  -0.007304   0.011442   0.000000  -0.000000
   58  O  4 XY   -0.000000  -0.000000   0.000000   0.036116  -0.004282
   59  O  4 XZ   -0.000000  -0.000000   0.000000   0.019931  -0.001788
   60  O  4 YZ    0.014505  -0.005306   0.009613   0.000000  -0.000000
   61  H  5  S   -0.165924  -0.153091  -0.051907   0.000000  -0.000000
   62  H  5  S   -0.129722  -0.105477  -0.045352   0.000000  -0.000000
   63  H  6  S    0.002482   0.213403   0.021311   0.000000  -0.000000
   64  H  6  S   -0.009442   0.169515   0.032788   0.000000  -0.000000
   65  H  7  S   -0.106154   0.200025   0.055776   0.000000  -0.000000
   66  H  7  S   -0.085526   0.135256   0.066230   0.000000  -0.000000
   67  H  8  S   -0.111255   0.011527   0.184845   0.000000  -0.000000
   68  H  8  S   -0.090774   0.021030   0.224264   0.000000  -0.000000

                     16         17
                    0.0888     0.0013
                     A          A   
    1  C  1  S   -0.000000   0.000000
    2  C  1  S   -0.000000   0.000000
    3  C  1  X    0.569621  -0.616380
    4  C  1  Y   -0.000000   0.000000
    5  C  1  Z   -0.000000   0.000000
    6  C  1  S   -0.000000   0.000000
    7  C  1  X    0.405065   0.541474
    8  C  1  Y   -0.000000   0.000000
    9  C  1  Z   -0.000000   0.000000
   10  C  1 XX   -0.000000   0.000000
   11  C  1 YY   -0.000000   0.000000
   12  C  1 ZZ   -0.000000   0.000000
   13  C  1 XY   -0.001279   0.215751
   14  C  1 XZ   -0.000909   0.147641
   15  C  1 YZ   -0.000000   0.000000
   16  C  2  S   -0.000000   0.000000
   17  C  2  S   -0.000000   0.000000
   18  C  2  X   -0.542001  -0.541996
   19  C  2  Y   -0.000000   0.000000
   20  C  2  Z   -0.000000   0.000000
   21  C  2  S   -0.000000   0.000000
   22  C  2  X   -0.373443   0.685948
   23  C  2  Y   -0.000000   0.000000
   24  C  2  Z   -0.000000   0.000000
   25  C  2 XX   -0.000000   0.000000
   26  C  2 YY   -0.000000   0.000000
   27  C  2 ZZ   -0.000000   0.000000
   28  C  2 XY    0.010998  -0.269073
   29  C  2 XZ    0.017047  -0.036438
   30  C  2 YZ   -0.000000   0.000000
   31  C  3  S   -0.000000   0.000000
   32  C  3  S   -0.000000   0.000000
   33  C  3  X   -0.051410  -0.215984
   34  C  3  Y   -0.000000   0.000000
   35  C  3  Z   -0.000000   0.000000
   36  C  3  S   -0.000000   0.000000
   37  C  3  X    0.002777  -0.180292
   38  C  3  Y   -0.000000   0.000000
   39  C  3  Z   -0.000000   0.000000
   40  C  3 XX   -0.000000   0.000000
   41  C  3 YY   -0.000000   0.000000
   42  C  3 ZZ   -0.000000   0.000000
   43  C  3 XY   -0.008765   0.005539
   44  C  3 XZ   -0.023048   0.000766
   45  C  3 YZ   -0.000000   0.000000
   46  O  4  S   -0.000000   0.000000
   47  O  4  S   -0.000000   0.000000
   48  O  4  X    0.116490   0.273790
   49  O  4  Y   -0.000000   0.000000
   50  O  4  Z   -0.000000   0.000000
   51  O  4  S   -0.000000   0.000000
   52  O  4  X    0.095109  -0.096611
   53  O  4  Y   -0.000000   0.000000
   54  O  4  Z   -0.000000   0.000000
   55  O  4 XX   -0.000000   0.000000
   56  O  4 YY   -0.000000   0.000000
   57  O  4 ZZ   -0.000000   0.000000
   58  O  4 XY    0.005342   0.000051
   59  O  4 XZ    0.003559   0.005184
   60  O  4 YZ   -0.000000   0.000000
   61  H  5  S   -0.000000   0.000000
   62  H  5  S   -0.000000   0.000000
   63  H  6  S   -0.000000   0.000000
   64  H  6  S   -0.000000   0.000000
   65  H  7  S   -0.000000   0.000000
   66  H  7  S   -0.000000   0.000000
   67  H  8  S   -0.000000   0.000000
   68  H  8  S   -0.000000   0.000000

          ------------------------
          MCSCF OPTIMIZED ORBITALS
          ------------------------

                      1          2          3          4          5
                  -20.5676   -11.3402   -11.2571   -11.2508    -1.3902
                     A          A          A          A          A   
    1  C  1  S    0.000006  -0.000045   0.987585  -0.126028  -0.003427
    2  C  1  S    0.000036  -0.000256   0.027359  -0.003789   0.008628
    3  C  1  X    0.000000   0.000000  -0.000000   0.000000  -0.000000
    4  C  1  Y   -0.000020   0.000012  -0.000075   0.000218  -0.003767
    5  C  1  Z   -0.000015   0.000150  -0.000096   0.000131  -0.004408
    6  C  1  S   -0.000091  -0.000092  -0.010632   0.005950   0.005884
    7  C  1  X    0.000000   0.000000  -0.000000   0.000000  -0.000000
    8  C  1  Y    0.000037  -0.000025   0.000401  -0.001398  -0.001989
    9  C  1  Z    0.000128  -0.000771   0.000258  -0.001403   0.009683
   10  C  1 XX    0.000014  -0.000125  -0.002558   0.000248   0.000281
   11  C  1 YY    0.000023   0.000083  -0.001787  -0.000155  -0.000078
   12  C  1 ZZ   -0.000015   0.000031  -0.002014  -0.000003   0.000123
   13  C  1 XY    0.000000   0.000000  -0.000000   0.000000  -0.000000
   14  C  1 XZ    0.000000   0.000000  -0.000000   0.000000  -0.000000
   15  C  1 YZ   -0.000003   0.000041   0.000201  -0.000058   0.000234
   16  C  2  S   -0.000001   0.003950   0.125387   0.987671  -0.018081
   17  C  2  S    0.000001   0.000238   0.003243   0.027788   0.033796
   18  C  2  X    0.000000   0.000000  -0.000000   0.000000  -0.000000
   19  C  2  Y    0.000019  -0.000093  -0.000186   0.000301  -0.007297
   20  C  2  Z    0.000007   0.000144  -0.000106  -0.000215  -0.026046
   21  C  2  S   -0.000054   0.002718   0.002267  -0.013638   0.019662
   22  C  2  X    0.000000   0.000000  -0.000000   0.000000  -0.000000
   23  C  2  Y   -0.000006   0.000586   0.001096  -0.001405  -0.009879
   24  C  2  Z    0.000062  -0.001143   0.000831   0.001038  -0.009296
   25  C  2 XX   -0.000017  -0.000147  -0.000394  -0.002428  -0.001700
   26  C  2 YY   -0.000020  -0.000235  -0.000525  -0.001631   0.000138
   27  C  2 ZZ    0.000005  -0.000638  -0.000538  -0.001810   0.007746
   28  C  2 XY    0.000000   0.000000  -0.000000   0.000000  -0.000000
   29  C  2 XZ    0.000000   0.000000  -0.000000   0.000000  -0.000000
   30  C  2 YZ   -0.000070  -0.000058   0.000013   0.000236   0.002573
   31  C  3  S   -0.000004   0.995755  -0.000551  -0.004279  -0.113449
   32  C  3  S    0.000448   0.026627  -0.000184  -0.000033   0.216733
   33  C  3  X    0.000000   0.000000  -0.000000   0.000000  -0.000000
   34  C  3  Y    0.000084  -0.000600  -0.000019   0.000041  -0.154706
   35  C  3  Z    0.000044  -0.000183  -0.000014  -0.000098  -0.078132
   36  C  3  S   -0.000340  -0.007429   0.000352   0.004215   0.062746
   37  C  3  X    0.000000   0.000000  -0.000000   0.000000  -0.000000
   38  C  3  Y    0.000572  -0.002843   0.000562   0.000165   0.029017
   39  C  3  Z    0.000329  -0.001658   0.000247   0.001634   0.001789
   40  C  3 XX   -0.000026  -0.002482  -0.000059  -0.000127  -0.016794
   41  C  3 YY   -0.000631  -0.001142  -0.000030  -0.000221   0.021671
   42  C  3 ZZ   -0.000230  -0.001529   0.000005  -0.000643  -0.005751
   43  C  3 XY    0.000000   0.000000  -0.000000   0.000000  -0.000000
   44  C  3 XZ    0.000000   0.000000  -0.000000   0.000000  -0.000000
   45  C  3 YZ   -0.000372   0.000575   0.000051  -0.000016   0.022240
   46  O  4  S    0.994694  -0.000315  -0.000029   0.000022  -0.195628
   47  O  4  S    0.020940   0.000574  -0.000136   0.000018   0.432660
   48  O  4  X    0.000000   0.000000  -0.000000   0.000000  -0.000000
   49  O  4  Y    0.001371   0.000252  -0.000008   0.000024   0.119448
   50  O  4  Z    0.000750   0.000128  -0.000013  -0.000010   0.066668
   51  O  4  S    0.004661  -0.002807   0.000735  -0.000474   0.395443
   52  O  4  X    0.000000   0.000000  -0.000000   0.000000  -0.000000
   53  O  4  Y    0.000041  -0.001553   0.000121  -0.000032   0.045574
   54  O  4  Z    0.000009  -0.000741   0.000167  -0.000220   0.028345
   55  O  4 XX   -0.004203   0.000374  -0.000094  -0.000019  -0.002227
   56  O  4 YY   -0.003637  -0.000053  -0.000098   0.000119   0.013416
   57  O  4 ZZ   -0.003822   0.000114  -0.000045   0.000088   0.002478
   58  O  4 XY    0.000000   0.000000  -0.000000   0.000000  -0.000000
   59  O  4 XZ    0.000000   0.000000  -0.000000   0.000000  -0.000000
   60  O  4 YZ    0.000159  -0.000082   0.000023   0.000002   0.010626
   61  H  5  S   -0.000002   0.000056  -0.000147  -0.000004   0.000109
   62  H  5  S   -0.000064   0.000511   0.001983  -0.000114  -0.005579
   63  H  6  S    0.000019  -0.000133  -0.000126  -0.000100   0.002559
   64  H  6  S    0.000005  -0.000136   0.002040  -0.000621   0.002390
   65  H  7  S   -0.000001  -0.000028  -0.000093  -0.000122   0.006878
   66  H  7  S   -0.000022   0.000280   0.000092   0.001635  -0.000547
   67  H  8  S   -0.000033   0.000001  -0.000065  -0.000100   0.026746
   68  H  8  S   -0.000130   0.002323  -0.000228  -0.000136  -0.011202

                      6          7          8          9         10
                   -1.0785    -0.8790    -0.7788    -0.6647    -0.6579
                     A          A          A          A          A   
    1  C  1  S   -0.138437   0.128341   0.052074  -0.018461  -0.007776
    2  C  1  S    0.262536  -0.247237  -0.099733   0.036183   0.011994
    3  C  1  X    0.000000  -0.000000  -0.000000   0.000000   0.000000
    4  C  1  Y   -0.092475  -0.029227  -0.153000   0.186234   0.208856
    5  C  1  Z   -0.053787  -0.050772   0.011677   0.195797  -0.166033
    6  C  1  S    0.205461  -0.238100  -0.127289   0.063604   0.023167
    7  C  1  X    0.000000  -0.000000  -0.000000   0.000000   0.000000
    8  C  1  Y   -0.007291  -0.019968  -0.047668   0.070813   0.086120
    9  C  1  Z   -0.011189  -0.018977   0.006972   0.092544  -0.079023
   10  C  1 XX   -0.011370   0.010758   0.004976  -0.001689  -0.001589
   11  C  1 YY    0.014031  -0.008507  -0.000870  -0.006122   0.005483
   12  C  1 ZZ    0.006983  -0.013796  -0.012388   0.017686   0.000677
   13  C  1 XY    0.000000  -0.000000  -0.000000   0.000000   0.000000
   14  C  1 XZ    0.000000  -0.000000  -0.000000   0.000000   0.000000
   15  C  1 YZ    0.006262   0.004705   0.008282  -0.008735  -0.011876
   16  C  2  S   -0.158867  -0.046751  -0.094310   0.029932   0.015167
   17  C  2  S    0.304428   0.093865   0.181876  -0.060711  -0.028489
   18  C  2  X    0.000000  -0.000000  -0.000000   0.000000   0.000000
   19  C  2  Y    0.088430  -0.119138  -0.132197  -0.199356   0.026016
   20  C  2  Z    0.003722  -0.186185   0.097861  -0.043873  -0.261407
   21  C  2  S    0.215524   0.086655   0.226227  -0.035933  -0.032810
   22  C  2  X    0.000000  -0.000000  -0.000000   0.000000   0.000000
   23  C  2  Y   -0.002467  -0.039952  -0.044608  -0.068945   0.034579
   24  C  2  Z    0.003372  -0.041338   0.027685  -0.009226  -0.102890
   25  C  2 XX   -0.011919  -0.004249  -0.006843   0.001098   0.000719
   26  C  2 YY    0.013459  -0.007837   0.012752  -0.003984  -0.009148
   27  C  2 ZZ    0.007121   0.019375   0.000933   0.008878   0.005763
   28  C  2 XY    0.000000  -0.000000  -0.000000   0.000000   0.000000
   29  C  2 XZ    0.000000  -0.000000  -0.000000   0.000000   0.000000
   30  C  2 YZ    0.003538  -0.007656  -0.006964  -0.000655   0.003275
   31  C  3  S   -0.053600  -0.118560   0.081518  -0.040179   0.012766
   32  C  3  S    0.110172   0.252105  -0.168903   0.099823  -0.026849
   33  C  3  X    0.000000  -0.000000  -0.000000   0.000000   0.000000
   34  C  3  Y    0.068926   0.100360  -0.155230  -0.261179  -0.032276
   35  C  3  Z    0.113390   0.118988   0.156543   0.024437   0.292540
   36  C  3  S    0.075605   0.210497  -0.177398   0.026173  -0.026121
   37  C  3  X    0.000000  -0.000000  -0.000000   0.000000   0.000000
   38  C  3  Y    0.028107   0.055533  -0.083608  -0.053987  -0.050264
   39  C  3  Z    0.020528   0.026888   0.028165   0.031574   0.093183
   40  C  3 XX   -0.004345  -0.008514   0.006866  -0.004978   0.002986
   41  C  3 YY   -0.004127   0.001172  -0.012676   0.003203  -0.006464
   42  C  3 ZZ    0.015499   0.014091   0.002828  -0.009847   0.003094
   43  C  3 XY    0.000000  -0.000000  -0.000000   0.000000   0.000000
   44  C  3 XZ    0.000000  -0.000000  -0.000000   0.000000   0.000000
   45  C  3 YZ   -0.002819  -0.010645   0.006715   0.005565   0.000206
   46  O  4  S    0.038617   0.067323  -0.038106   0.062017  -0.027510
   47  O  4  S   -0.089160  -0.155440   0.089993  -0.141406   0.061974
   48  O  4  X    0.000000  -0.000000  -0.000000   0.000000   0.000000
   49  O  4  Y   -0.002030   0.072756  -0.150841   0.232703  -0.251064
   50  O  4  Z    0.015311   0.065295   0.055329   0.295929   0.131873
   51  O  4  S   -0.083930  -0.193231   0.115704  -0.253494   0.112113
   52  O  4  X    0.000000  -0.000000  -0.000000   0.000000   0.000000
   53  O  4  Y    0.002686   0.036470  -0.080386   0.129199  -0.142877
   54  O  4  Z    0.006883   0.034896   0.026980   0.171889   0.081470
   55  O  4 XX   -0.000230  -0.001130   0.001611  -0.004986   0.001357
   56  O  4 YY   -0.002647   0.002119  -0.011260   0.010119  -0.019565
   57  O  4 ZZ   -0.000346   0.000174   0.008885   0.008180   0.011933
   58  O  4 XY    0.000000  -0.000000  -0.000000   0.000000   0.000000
   59  O  4 XZ    0.000000  -0.000000  -0.000000   0.000000   0.000000
   60  O  4 YZ    0.000918   0.005543   0.000573   0.020601   0.002728
   61  H  5  S    0.065785  -0.125053  -0.051080   0.145605  -0.071518
   62  H  5  S    0.012369  -0.047643  -0.025111   0.090109  -0.042655
   63  H  6  S    0.071236  -0.099144  -0.117458   0.047086   0.160775
   64  H  6  S    0.010539  -0.035234  -0.063683   0.032491   0.106286
   65  H  7  S    0.073802   0.036926   0.163471   0.051840  -0.105869
   66  H  7  S    0.006065   0.005971   0.079361   0.030435  -0.054621
   67  H  8  S    0.034743   0.103298  -0.174645  -0.084936  -0.101179
   68  H  8  S    0.003275   0.027575  -0.089034  -0.065604  -0.059153

                     11         12         13         14         15
                   -0.5979    -0.5497    -0.4265    -0.5374    -0.3819
                     A          A          A          A          A   
    1  C  1  S   -0.013604   0.011181  -0.006092  -0.000000   0.000000
    2  C  1  S    0.032611  -0.025154   0.009584  -0.000000   0.000000
    3  C  1  X   -0.000000  -0.000000   0.000000   0.081875   0.360097
    4  C  1  Y   -0.186848   0.233789  -0.045408  -0.000000   0.000000
    5  C  1  Z   -0.263581  -0.230424  -0.062843  -0.000000   0.000000
    6  C  1  S    0.000176  -0.014892   0.097723  -0.000000   0.000000
    7  C  1  X   -0.000000  -0.000000   0.000000   0.050594   0.284929
    8  C  1  Y   -0.061909   0.124193  -0.058665  -0.000000   0.000000
    9  C  1  Z   -0.112110  -0.167060  -0.080419  -0.000000   0.000000
   10  C  1 XX    0.000756   0.000175  -0.000679  -0.000000   0.000000
   11  C  1 YY    0.010637   0.018959   0.008898  -0.000000   0.000000
   12  C  1 ZZ   -0.019852  -0.016256  -0.008901  -0.000000   0.000000
   13  C  1 XY   -0.000000  -0.000000   0.000000  -0.005520  -0.017076
   14  C  1 XZ   -0.000000  -0.000000   0.000000  -0.003503  -0.008871
   15  C  1 YZ    0.005184  -0.025790  -0.004692  -0.000000   0.000000
   16  C  2  S   -0.011377  -0.015053   0.033286  -0.000000   0.000000
   17  C  2  S    0.024957   0.026610  -0.061486  -0.000000   0.000000
   18  C  2  X   -0.000000  -0.000000   0.000000   0.138742   0.366646
   19  C  2  Y    0.268534  -0.231116   0.017093  -0.000000   0.000000
   20  C  2  Z    0.069789   0.130092   0.239416  -0.000000   0.000000
   21  C  2  S    0.006514   0.059381  -0.255863  -0.000000   0.000000
   22  C  2  X   -0.000000  -0.000000   0.000000   0.078676   0.284176
   23  C  2  Y    0.106094  -0.132145  -0.090145  -0.000000   0.000000
   24  C  2  Z    0.023036   0.119501   0.147217  -0.000000   0.000000
   25  C  2 XX    0.000282  -0.001088   0.001445  -0.000000   0.000000
   26  C  2 YY    0.006851   0.020400   0.010410  -0.000000   0.000000
   27  C  2 ZZ   -0.013198  -0.011620  -0.011604  -0.000000   0.000000
   28  C  2 XY   -0.000000  -0.000000   0.000000   0.002348   0.018432
   29  C  2 XZ   -0.000000  -0.000000   0.000000  -0.007773   0.005277
   30  C  2 YZ    0.015402  -0.024254  -0.006660  -0.000000   0.000000
   31  C  3  S    0.004483   0.024333   0.002778  -0.000000   0.000000
   32  C  3  S    0.002762  -0.053225  -0.020860  -0.000000   0.000000
   33  C  3  X   -0.000000  -0.000000   0.000000   0.323111  -0.036527
   34  C  3  Y   -0.256613  -0.016399   0.088500  -0.000000   0.000000
   35  C  3  Z   -0.092239  -0.142866  -0.179679  -0.000000   0.000000
   36  C  3  S   -0.079066  -0.038862   0.028692  -0.000000   0.000000
   37  C  3  X   -0.000000  -0.000000   0.000000   0.196808  -0.036981
   38  C  3  Y   -0.070249   0.001743   0.086055  -0.000000   0.000000
   39  C  3  Z   -0.009554  -0.045066  -0.006305  -0.000000   0.000000
   40  C  3 XX   -0.003475   0.000134  -0.001754  -0.000000   0.000000
   41  C  3 YY    0.003773  -0.003797   0.043289  -0.000000   0.000000
   42  C  3 ZZ   -0.009154   0.004420  -0.038840  -0.000000   0.000000
   43  C  3 XY   -0.000000  -0.000000   0.000000  -0.028242   0.017471
   44  C  3 XZ   -0.000000  -0.000000   0.000000  -0.009677   0.021632
   45  C  3 YZ    0.025533   0.000839  -0.033766  -0.000000   0.000000
   46  O  4  S    0.033739   0.004584  -0.000296  -0.000000   0.000000
   47  O  4  S   -0.073766  -0.007912  -0.007962  -0.000000   0.000000
   48  O  4  X   -0.000000  -0.000000   0.000000   0.454457  -0.215036
   49  O  4  Y    0.284496   0.128073  -0.254792  -0.000000   0.000000
   50  O  4  Z    0.171968  -0.150792   0.468245  -0.000000   0.000000
   51  O  4  S   -0.170179  -0.031472   0.044628  -0.000000   0.000000
   52  O  4  X   -0.000000  -0.000000   0.000000   0.320856  -0.180016
   53  O  4  Y    0.168535   0.080611  -0.193040  -0.000000   0.000000
   54  O  4  Z    0.098429  -0.107024   0.373113  -0.000000   0.000000
   55  O  4 XX   -0.003579   0.000200  -0.002720  -0.000000   0.000000
   56  O  4 YY    0.014511   0.011046  -0.016473  -0.000000   0.000000
   57  O  4 ZZ    0.002366  -0.007304   0.011442  -0.000000   0.000000
   58  O  4 XY   -0.000000  -0.000000   0.000000   0.033891  -0.013178
   59  O  4 XZ   -0.000000  -0.000000   0.000000   0.018855  -0.006681
   60  O  4 YZ    0.014505  -0.005306   0.009613  -0.000000   0.000000
   61  H  5  S   -0.165924  -0.153091  -0.051907  -0.000000   0.000000
   62  H  5  S   -0.129722  -0.105477  -0.045352  -0.000000   0.000000
   63  H  6  S    0.002482   0.213403   0.021311  -0.000000   0.000000
   64  H  6  S   -0.009442   0.169515   0.032788  -0.000000   0.000000
   65  H  7  S   -0.106154   0.200025   0.055776  -0.000000   0.000000
   66  H  7  S   -0.085526   0.135256   0.066230  -0.000000   0.000000
   67  H  8  S   -0.111255   0.011527   0.184845  -0.000000   0.000000
   68  H  8  S   -0.090774   0.021030   0.224264  -0.000000   0.000000

                     16         17         18         19         20
                    0.1701     0.8723     0.2240     0.2467     0.2556
                     A          A          A          A          A   
    1  C  1  S   -0.000000  -0.000000   0.000000  -0.100598   0.037584
    2  C  1  S   -0.000000  -0.000000   0.000000   0.105891  -0.046699
    3  C  1  X   -0.545545  -0.642811  -0.148647   0.000000  -0.000000
    4  C  1  Y   -0.000000  -0.000000   0.000000   0.172572   0.023051
    5  C  1  Z   -0.000000  -0.000000   0.000000   0.005705  -0.200027
    6  C  1  S   -0.000000  -0.000000   0.000000   1.733223  -0.714400
    7  C  1  X   -0.429355   0.521632   0.286331   0.000000  -0.000000
    8  C  1  Y   -0.000000  -0.000000   0.000000   0.638354   0.011995
    9  C  1  Z   -0.000000  -0.000000   0.000000   0.054241  -0.734681
   10  C  1 XX   -0.000000  -0.000000   0.000000  -0.007026  -0.000819
   11  C  1 YY   -0.000000  -0.000000   0.000000   0.002129  -0.010203
   12  C  1 ZZ   -0.000000  -0.000000   0.000000  -0.008085   0.015130
   13  C  1 XY   -0.007691   0.215762   0.038706   0.000000  -0.000000
   14  C  1 XZ   -0.005247   0.147628   0.013679   0.000000  -0.000000
   15  C  1 YZ   -0.000000  -0.000000   0.000000   0.001972   0.005610
   16  C  2  S   -0.000000  -0.000000   0.000000   0.017125   0.063593
   17  C  2  S   -0.000000  -0.000000   0.000000  -0.038150  -0.059224
   18  C  2  X    0.561747  -0.521783  -0.308639   0.000000  -0.000000
   19  C  2  Y   -0.000000  -0.000000   0.000000  -0.006015   0.176042
   20  C  2  Z   -0.000000  -0.000000   0.000000   0.021044  -0.094033
   21  C  2  S   -0.000000  -0.000000   0.000000   0.065989  -1.225232
   22  C  2  X    0.342301   0.698761  -0.319196   0.000000  -0.000000
   23  C  2  Y   -0.000000  -0.000000   0.000000  -0.223259   0.584612
   24  C  2  Z   -0.000000  -0.000000   0.000000  -0.071488  -0.040284
   25  C  2 XX   -0.000000  -0.000000   0.000000   0.000527   0.002924
   26  C  2 YY   -0.000000  -0.000000   0.000000   0.002590   0.011040
   27  C  2 ZZ   -0.000000  -0.000000   0.000000  -0.003751  -0.006750
   28  C  2 XY    0.000230  -0.269452  -0.025815   0.000000  -0.000000
   29  C  2 XZ   -0.015501  -0.037149  -0.031311   0.000000  -0.000000
   30  C  2 YZ   -0.000000  -0.000000   0.000000  -0.003602  -0.022139
   31  C  3  S   -0.000000  -0.000000   0.000000  -0.052885  -0.022200
   32  C  3  S   -0.000000  -0.000000   0.000000   0.061829   0.002307
   33  C  3  X    0.059558  -0.214039   0.392948   0.000000  -0.000000
   34  C  3  Y   -0.000000  -0.000000   0.000000   0.152870   0.100730
   35  C  3  Z   -0.000000  -0.000000   0.000000  -0.111126  -0.054397
   36  C  3  S   -0.000000  -0.000000   0.000000   0.771036   0.546313
   37  C  3  X    0.004354  -0.180391   0.806129   0.000000  -0.000000
   38  C  3  Y   -0.000000  -0.000000   0.000000   0.488674   0.293455
   39  C  3  Z   -0.000000  -0.000000   0.000000  -0.464467   0.116488
   40  C  3 XX   -0.000000  -0.000000   0.000000  -0.000352  -0.006826
   41  C  3 YY   -0.000000  -0.000000   0.000000  -0.003550   0.008643
   42  C  3 ZZ   -0.000000  -0.000000   0.000000  -0.004568  -0.005493
   43  C  3 XY    0.008520   0.005830   0.027458   0.000000  -0.000000
   44  C  3 XZ    0.022904   0.001592   0.000142   0.000000  -0.000000
   45  C  3 YZ   -0.000000  -0.000000   0.000000  -0.008883   0.021359
   46  O  4  S   -0.000000  -0.000000   0.000000   0.009238  -0.010259
   47  O  4  S   -0.000000  -0.000000   0.000000  -0.026491   0.012149
   48  O  4  X   -0.128242   0.269323  -0.322631   0.000000  -0.000000
   49  O  4  Y   -0.000000  -0.000000   0.000000  -0.067623   0.029393
   50  O  4  Z   -0.000000  -0.000000   0.000000   0.022742   0.028687
   51  O  4  S   -0.000000  -0.000000   0.000000  -0.057402   0.140086
   52  O  4  X   -0.091020  -0.099842  -0.534291   0.000000  -0.000000
   53  O  4  Y   -0.000000  -0.000000   0.000000  -0.146654   0.032766
   54  O  4  Z   -0.000000  -0.000000   0.000000   0.108509   0.057696
   55  O  4 XX   -0.000000  -0.000000   0.000000   0.000780  -0.003551
   56  O  4 YY   -0.000000  -0.000000   0.000000  -0.004457  -0.001802
   57  O  4 ZZ   -0.000000  -0.000000   0.000000  -0.000964  -0.007874
   58  O  4 XY   -0.005380  -0.000145  -0.000395   0.000000  -0.000000
   59  O  4 XZ   -0.003801   0.005041  -0.002154   0.000000  -0.000000
   60  O  4 YZ   -0.000000  -0.000000   0.000000  -0.000479  -0.003218
   61  H  5  S   -0.000000  -0.000000   0.000000  -0.036660   0.033984
   62  H  5  S   -0.000000  -0.000000   0.000000  -0.954395   1.294540
   63  H  6  S   -0.000000  -0.000000   0.000000  -0.014435  -0.013338
   64  H  6  S   -0.000000  -0.000000   0.000000  -1.396185  -0.332557
   65  H  7  S   -0.000000  -0.000000   0.000000   0.031615   0.061145
   66  H  7  S   -0.000000  -0.000000   0.000000   0.066369   1.415734
   67  H  8  S   -0.000000  -0.000000   0.000000   0.011995  -0.038844
   68  H  8  S   -0.000000  -0.000000   0.000000  -1.110960  -0.640171

                     21         22         23         24         25
                    0.3027     0.3338     0.4221     0.4827     0.5364
                     A          A          A          A          A   
    1  C  1  S   -0.059952  -0.042815  -0.029684   0.075204   0.005905
    2  C  1  S    0.068671   0.057950  -0.059426   0.016466   0.022466
    3  C  1  X   -0.000000   0.000000  -0.000000  -0.000000  -0.000000
    4  C  1  Y    0.095794  -0.084412   0.119205   0.010509   0.161356
    5  C  1  Z   -0.111948   0.215943   0.117271   0.055884  -0.090952
    6  C  1  S    0.953976   0.394619   1.628781  -2.826087  -1.779074
    7  C  1  X   -0.000000   0.000000  -0.000000  -0.000000  -0.000000
    8  C  1  Y    0.288898  -0.623785  -0.435205   2.353817   1.807567
    9  C  1  Z   -0.458553   1.358667  -0.590713   1.703168  -0.283843
   10  C  1 XX   -0.000969  -0.001639  -0.010726   0.011557   0.004761
   11  C  1 YY   -0.017196  -0.007640  -0.016225  -0.003678   0.020433
   12  C  1 ZZ    0.010001   0.003161   0.026331  -0.014019  -0.040029
   13  C  1 XY   -0.000000   0.000000  -0.000000  -0.000000  -0.000000
   14  C  1 XZ   -0.000000   0.000000  -0.000000  -0.000000  -0.000000
   15  C  1 YZ    0.011353  -0.005942   0.006399   0.035890  -0.038239
   16  C  2  S   -0.001292   0.082768   0.027589  -0.103444   0.048999
   17  C  2  S   -0.002553  -0.108492   0.063887   0.086201  -0.099011
   18  C  2  X   -0.000000   0.000000  -0.000000  -0.000000  -0.000000
   19  C  2  Y    0.001293   0.120005  -0.114332   0.225710   0.011705
   20  C  2  Z   -0.160988  -0.079179  -0.028139  -0.039204   0.195601
   21  C  2  S    0.026393  -1.363470  -1.800347   3.681612  -0.209903
   22  C  2  X   -0.000000   0.000000  -0.000000  -0.000000  -0.000000
   23  C  2  Y    0.122109   1.066423  -1.256341   2.421700   1.794104
   24  C  2  Z   -0.707142  -0.845804   0.744371  -0.025624   2.940402
   25  C  2 XX    0.001800  -0.001051   0.005775  -0.004578  -0.008568
   26  C  2 YY    0.020692  -0.011508  -0.000716   0.021584  -0.025949
   27  C  2 ZZ   -0.021007   0.017312   0.010925   0.009358   0.027553
   28  C  2 XY   -0.000000   0.000000  -0.000000  -0.000000  -0.000000
   29  C  2 XZ   -0.000000   0.000000  -0.000000  -0.000000  -0.000000
   30  C  2 YZ    0.004180   0.016041  -0.030588  -0.007023   0.015044
   31  C  3  S    0.096093  -0.013506   0.026252   0.058848  -0.076267
   32  C  3  S   -0.117824   0.051129   0.023560   0.031655   0.033957
   33  C  3  X   -0.000000   0.000000  -0.000000  -0.000000  -0.000000
   34  C  3  Y   -0.201956  -0.032827   0.040332   0.058850  -0.153414
   35  C  3  Z    0.030166   0.149622   0.116293  -0.053050   0.383064
   36  C  3  S   -1.509798  -0.222407  -0.971015  -1.487528   2.706610
   37  C  3  X   -0.000000   0.000000  -0.000000  -0.000000  -0.000000
   38  C  3  Y   -0.989842  -0.530050   1.978109  -0.217128  -1.343057
   39  C  3  Z   -0.146384   0.168329   1.708912  -0.333109   1.777753
   40  C  3 XX   -0.003168   0.005592  -0.011828  -0.005725   0.015813
   41  C  3 YY    0.008310   0.001596  -0.000686   0.010862   0.009677
   42  C  3 ZZ    0.011399  -0.006097   0.001862   0.006876  -0.012805
   43  C  3 XY   -0.000000   0.000000  -0.000000  -0.000000  -0.000000
   44  C  3 XZ   -0.000000   0.000000  -0.000000  -0.000000  -0.000000
   45  C  3 YZ    0.003097   0.005834  -0.001176   0.016406   0.014914
   46  O  4  S    0.010364   0.009872  -0.104191  -0.033250   0.035919
   47  O  4  S    0.023078  -0.006507   0.033849   0.110407   0.039159
   48  O  4  X   -0.000000   0.000000  -0.000000  -0.000000  -0.000000
   49  O  4  Y    0.061248   0.038418   0.124551   0.049890  -0.011970
   50  O  4  Z   -0.016442  -0.062354   0.000749   0.120643  -0.068040
   51  O  4  S   -0.364577  -0.230649   2.360204   0.259104  -1.031663
   52  O  4  X   -0.000000   0.000000  -0.000000  -0.000000  -0.000000
   53  O  4  Y    0.006536   0.002922   0.876513   0.177120  -0.202455
   54  O  4  Z   -0.109112  -0.135563   0.285967   0.243970  -0.576791
   55  O  4 XX    0.010669   0.004790  -0.075280   0.003082   0.053079
   56  O  4 YY    0.006171  -0.000904  -0.013265   0.024345   0.010365
   57  O  4 ZZ    0.018942   0.005332  -0.055113   0.006662   0.024822
   58  O  4 XY   -0.000000   0.000000  -0.000000  -0.000000  -0.000000
   59  O  4 XZ   -0.000000   0.000000  -0.000000  -0.000000  -0.000000
   60  O  4 YZ   -0.008789  -0.003169   0.037004   0.006192  -0.001980
   61  H  5  S    0.040084  -0.002211   0.069150  -0.035709  -0.194352
   62  H  5  S    0.197271  -1.661804  -0.217398  -0.813553   0.414093
   63  H  6  S   -0.070579  -0.010224  -0.036021  -0.142933   0.087800
   64  H  6  S   -1.260240   1.034030  -0.521902  -0.051493  -1.250365
   65  H  7  S    0.012678  -0.022894   0.096726   0.041529  -0.049492
   66  H  7  S    0.514580   1.873068  -0.690314   0.844017  -0.009044
   67  H  8  S    0.038926  -0.033693   0.049585   0.030167  -0.058812
   68  H  8  S    1.614113   0.469445   0.008587   0.434813   1.189544

                     26         27         28         29         30
                    0.7176     0.7541     0.7790     0.8252     0.8277
                     A          A          A          A          A   
    1  C  1  S    0.004298   0.000594   0.000000   0.000000  -0.034692
    2  C  1  S   -0.449954  -0.260074   0.000000   0.000000  -0.407232
    3  C  1  X    0.000000   0.000000   0.195957   0.620375   0.000000
    4  C  1  Y    0.527095  -0.147348   0.000000   0.000000  -0.057239
    5  C  1  Z    0.205663   0.251731   0.000000   0.000000  -0.234056
    6  C  1  S   -0.471544   0.202744   0.000000   0.000000   1.110818
    7  C  1  X    0.000000   0.000000  -0.268980  -1.219666   0.000000
    8  C  1  Y   -0.388344   0.853534   0.000000   0.000000   0.140693
    9  C  1  Z    0.101628  -0.469550   0.000000   0.000000   0.571785
   10  C  1 XX   -0.003046   0.003225   0.000000   0.000000   0.040591
   11  C  1 YY   -0.064842  -0.046522   0.000000   0.000000  -0.044803
[...]
   60  O  4 YZ   -0.147601   0.059495   0.000000   0.116961   0.000000
   61  H  5  S   -0.386888  -0.429130   0.000000   0.066647   0.000000
   62  H  5  S    0.080611  -0.107200   0.000000  -0.038080   0.000000
   63  H  6  S   -0.480153   0.315307   0.000000   0.248997   0.000000
   64  H  6  S   -0.034444  -0.069297   0.000000   0.223301   0.000000
   65  H  7  S    0.263251   0.082357   0.000000  -0.253599   0.000000
   66  H  7  S    0.021298  -0.020730   0.000000   0.162541   0.000000
   67  H  8  S    0.178428  -0.382300   0.000000   0.151589   0.000000
   68  H  8  S    0.054492   0.071835   0.000000  -0.235585   0.000000

                     61         62         63         64         65
                    2.9630     3.2190     3.2970     3.3749     4.2687
                     A          A          A          A          A   
    1  C  1  S    0.065626  -0.010870   0.029107  -0.002951  -0.019349
    2  C  1  S   -0.189109   0.038495  -0.109079   0.174413   0.257001
    3  C  1  X   -0.000000   0.000000   0.000000  -0.000000  -0.000000
    4  C  1  Y    0.523121  -0.157781   0.360924  -0.309552   0.050355
    5  C  1  Z    0.278580   0.038990   0.164530  -0.138071  -0.024773
    6  C  1  S   -2.116932   0.308181  -1.230521   0.434166   0.184233
    7  C  1  X   -0.000000   0.000000   0.000000  -0.000000  -0.000000
    8  C  1  Y    1.011336   0.099887   0.555415  -0.292947   0.009196
    9  C  1  Z    0.419887  -0.520812   0.423017   0.096029   0.356865
   10  C  1 XX    0.555755  -0.085883   0.201230  -0.051902  -0.062151
   11  C  1 YY   -0.395809   0.571799  -0.316254   0.375997  -0.208151
   12  C  1 ZZ   -0.094576  -0.491759   0.068225  -0.210052  -0.113716
   13  C  1 XY   -0.000000   0.000000   0.000000  -0.000000  -0.000000
   14  C  1 XZ   -0.000000   0.000000   0.000000  -0.000000  -0.000000
   15  C  1 YZ   -0.788736  -0.359297  -0.344094   0.143982  -0.047191
   16  C  2  S   -0.079327   0.065544  -0.026054   0.004056   0.064615
   17  C  2  S    0.181049  -0.109931  -0.012877  -0.120179  -0.482823
   18  C  2  X   -0.000000   0.000000   0.000000  -0.000000  -0.000000
   19  C  2  Y    0.535974  -0.032930   0.238104  -0.199676   0.068363
   20  C  2  Z    0.082580   0.160976   0.282975  -0.224840   0.030071
   21  C  2  S    2.421887  -1.499219   1.379368  -0.196157   0.409509
   22  C  2  X   -0.000000   0.000000   0.000000  -0.000000  -0.000000
   23  C  2  Y    1.150397  -0.098672   0.685823  -0.360195  -0.467063
   24  C  2  Z    0.177866   0.910547   0.190042  -0.511281  -0.263606
   25  C  2 XX   -0.666317   0.331229  -0.164061   0.050532   0.288706
   26  C  2 YY    0.749151   0.566256   0.503417  -0.286990   0.312597
   27  C  2 ZZ   -0.035461  -0.730694  -0.382368   0.284993   0.218149
   28  C  2 XY   -0.000000   0.000000   0.000000  -0.000000  -0.000000
   29  C  2 XZ   -0.000000   0.000000   0.000000  -0.000000  -0.000000
   30  C  2 YZ    0.243987  -0.704779   0.444142  -0.580813   0.078898
   31  C  3  S    0.045451  -0.028534  -0.059450   0.008442   0.115978
   32  C  3  S    0.093819   0.346661  -0.722322  -1.094418  -1.029306
   33  C  3  X   -0.000000   0.000000   0.000000  -0.000000  -0.000000
   34  C  3  Y   -0.106880  -0.155225   0.827909   0.810954  -0.075465
   35  C  3  Z   -0.032379   0.214005   0.458891   0.455985  -0.011948
   36  C  3  S   -0.691358   1.701507  -1.002887  -1.615525  -2.760816
   37  C  3  X   -0.000000   0.000000   0.000000  -0.000000  -0.000000
   38  C  3  Y   -0.349082  -0.292799   0.716938   0.611498   1.797682
   39  C  3  Z   -0.177017   0.625426   0.025174   0.241730   0.339513
   40  C  3 XX    0.252331  -0.284004   0.120505   0.443969   0.609805
   41  C  3 YY    0.350159  -0.442588  -0.817013  -0.054270   0.571689
   42  C  3 ZZ   -0.382276   0.698182   0.462572  -0.189298   0.555856
   43  C  3 XY   -0.000000   0.000000   0.000000  -0.000000  -0.000000
   44  C  3 XZ   -0.000000   0.000000   0.000000  -0.000000  -0.000000
   45  C  3 YZ   -0.320784  -0.111388   0.188022  -0.940324   0.086562
   46  O  4  S   -0.001227   0.014974  -0.020638  -0.023849  -0.517922
   47  O  4  S    0.104289   0.416527  -0.638318  -0.400994  -0.343152
   48  O  4  X   -0.000000   0.000000   0.000000  -0.000000  -0.000000
   49  O  4  Y    0.068757   0.112188   0.111272   0.330453  -0.267544
   50  O  4  Z   -0.001060   0.117075   0.080871   0.148586  -0.156496
   51  O  4  S   -0.185372  -1.049243   2.153269   2.085592   6.201291
   52  O  4  X   -0.000000   0.000000   0.000000  -0.000000  -0.000000
   53  O  4  Y   -0.052113  -0.455970   0.968383   1.188502   1.122436
   54  O  4  Z   -0.157468  -0.327186   0.903227   0.431012   0.762449
   55  O  4 XX    0.028701   0.234284  -0.446466  -0.391888  -1.763616
   56  O  4 YY    0.226129  -0.256264   0.294588   1.070666  -1.632927
   57  O  4 ZZ   -0.252533   0.152254   0.321574  -0.391792  -1.681453
   58  O  4 XY   -0.000000   0.000000   0.000000  -0.000000  -0.000000
   59  O  4 XZ   -0.000000   0.000000   0.000000  -0.000000  -0.000000
   60  O  4 YZ   -0.339782  -0.067658   0.983105   0.559343   0.168222
   61  H  5  S    0.215146   0.315482   0.006193   0.068468  -0.028344
   62  H  5  S   -0.052282   0.042012  -0.099707  -0.087153  -0.205304
   63  H  6  S   -0.109262  -0.323414   0.007005   0.021992   0.083352
   64  H  6  S    0.001316  -0.104307   0.024971   0.052743  -0.019631
   65  H  7  S   -0.213750  -0.332997   0.030067  -0.152561  -0.056078
   66  H  7  S    0.223914   0.064185   0.069813   0.109734  -0.124109
   67  H  8  S   -0.089086  -0.008904   0.223296  -0.180195  -0.053574
   68  H  8  S    0.271342   0.049239  -0.249778   0.143842  -0.171858

                     66         67         68
                    4.4777     4.5712     4.7956
                     A          A          A   
    1  C  1  S   -0.249429   0.368095   0.154730
    2  C  1  S    1.853112  -2.193760  -0.951497
    3  C  1  X    0.000000  -0.000000   0.000000
    4  C  1  Y   -0.090927  -0.160998  -0.261462
    5  C  1  Z   -0.074247  -0.124641  -0.097995
    6  C  1  S    0.452177  -1.619544  -1.224056
    7  C  1  X    0.000000  -0.000000   0.000000
    8  C  1  Y    0.115995   0.039651   0.166233
    9  C  1  Z    0.372669   0.351391   0.025795
   10  C  1 XX   -0.968121   1.410199   0.539001
   11  C  1 YY   -0.983610   1.535827   0.912519
   12  C  1 ZZ   -1.038929   1.411956   0.657938
   13  C  1 XY    0.000000  -0.000000   0.000000
   14  C  1 XZ    0.000000  -0.000000   0.000000
   15  C  1 YZ    0.018298   0.107111   0.133353
   16  C  2  S   -0.301568  -0.067869  -0.358947
   17  C  2  S    1.924893   0.238586   2.214493
   18  C  2  X    0.000000  -0.000000   0.000000
   19  C  2  Y    0.060847  -0.227216  -0.221056
   20  C  2  Z   -0.012735  -0.211517   0.079606
   21  C  2  S    1.118482   0.778541   2.080960
   22  C  2  X    0.000000  -0.000000   0.000000
   23  C  2  Y   -0.025744  -0.056861   0.271266
   24  C  2  Z   -0.236218  -0.025495  -0.110278
   25  C  2 XX   -1.167613  -0.222838  -1.331651
   26  C  2 YY   -1.138041  -0.467716  -1.589174
   27  C  2 ZZ   -1.030873  -0.068946  -1.728288
   28  C  2 XY    0.000000  -0.000000   0.000000
   29  C  2 XZ    0.000000  -0.000000   0.000000
   30  C  2 YZ    0.008293  -0.106173  -0.172616
   31  C  3  S   -0.235231  -0.292970   0.269869
   32  C  3  S    1.434844   1.632248  -1.596936
   33  C  3  X    0.000000  -0.000000   0.000000
   34  C  3  Y    0.143351   0.153462  -0.166822
   35  C  3  Z    0.132195   0.065037   0.072222
   36  C  3  S   -0.599979  -0.307217  -0.920042
   37  C  3  X    0.000000  -0.000000   0.000000
   38  C  3  Y    0.620669   1.065343  -0.487622
   39  C  3  Z    0.036665   0.216029  -0.366215
   40  C  3 XX   -0.818314  -1.007820   0.923827
   41  C  3 YY   -1.047757  -1.229528   1.150491
   42  C  3 ZZ   -0.821710  -1.148214   1.401322
   43  C  3 XY    0.000000  -0.000000   0.000000
   44  C  3 XZ    0.000000  -0.000000   0.000000
   45  C  3 YZ   -0.133471  -0.150581   0.165593
   46  O  4  S   -0.126989  -0.163265   0.034284
   47  O  4  S   -0.064563  -0.159533   0.062606
   48  O  4  X    0.000000  -0.000000   0.000000
   49  O  4  Y    0.086831   0.090715  -0.134135
   50  O  4  Z    0.049558   0.042805  -0.063118
   51  O  4  S    1.796516   2.473342  -0.761887
   52  O  4  X    0.000000  -0.000000   0.000000
   53  O  4  Y    0.510602   0.680334  -0.374859
   54  O  4  Z    0.304773   0.422184  -0.164689
   55  O  4 XX   -0.451244  -0.593865   0.192727
   56  O  4 YY   -0.222538  -0.289968  -0.134674
   57  O  4 ZZ   -0.403764  -0.503458   0.080209
   58  O  4 XY    0.000000  -0.000000   0.000000
   59  O  4 XZ    0.000000  -0.000000   0.000000
   60  O  4 YZ    0.152588   0.184913  -0.115962
   61  H  5  S    0.089489  -0.142851  -0.036015
   62  H  5  S   -0.359849   0.186068   0.209811
   63  H  6  S    0.156065  -0.051111  -0.068574
   64  H  6  S   -0.148695   0.406786   0.171916
   65  H  7  S    0.115482   0.001019   0.107958
   66  H  7  S   -0.220208  -0.133884  -0.276689
   67  H  8  S    0.088650   0.057458  -0.050208
   68  H  8  S   -0.235398  -0.429876   0.295909
 .....DONE WITH MCSCF ITERATIONS.....
 STEP CPU TIME =     2.05 TOTAL CPU TIME =          2.4 (      0.0 MIN)
 TOTAL WALL CLOCK TIME=          2.4 SECONDS, CPU UTILIZATION IS    99.41%

     ----------------------------------------------------------------
     PROPERTY VALUES FOR THE MCSCF SELF-CONSISTENT FIELD WAVEFUNCTION
     ----------------------------------------------------------------

          -----------------
          ENERGY COMPONENTS
          -----------------

         WAVEFUNCTION NORMALIZATION =       1.0000000000

                ONE ELECTRON ENERGY =    -462.1265581997
                TWO ELECTRON ENERGY =     168.6481662751
           NUCLEAR REPULSION ENERGY =     102.6894631254
                                      ------------------
                       TOTAL ENERGY =    -190.7889287991

 ELECTRON-ELECTRON POTENTIAL ENERGY =     168.6481662751
  NUCLEUS-ELECTRON POTENTIAL ENERGY =    -652.4122860027
   NUCLEUS-NUCLEUS POTENTIAL ENERGY =     102.6894631254
                                      ------------------
             TOTAL POTENTIAL ENERGY =    -381.0746566021
               TOTAL KINETIC ENERGY =     190.2857278030
                 VIRIAL RATIO (V/T) =       2.0026444495

          ---------------------------------------
          MULLIKEN AND LOWDIN POPULATION ANALYSES
          ---------------------------------------

     ATOMIC MULLIKEN POPULATION IN EACH MOLECULAR ORBITAL

                      1          2          3          4          5

                  2.000000   2.000000   2.000000   2.000000   2.000000

    1            -0.000000   0.000028   1.966501   0.032878   0.000191
    2            -0.000002   0.000564   0.032672   1.965992   0.028699
    3            -0.000263   1.999893   0.000042   0.000838   0.464633
    4             2.000268  -0.000934   0.000001  -0.000004   1.507056
    5            -0.000000   0.000000   0.000386  -0.000001  -0.000135
    6             0.000000  -0.000001   0.000397  -0.000004   0.000153
    7            -0.000000   0.000008   0.000004   0.000304   0.000288
    8            -0.000003   0.000442  -0.000003  -0.000003  -0.000885

                      6          7          8          9         10

                  2.000000   2.000000   2.000000   2.000000   2.000000

    1             0.727019   0.543256   0.242212   0.406789   0.413628
    2             0.856654   0.366722   0.445958   0.205550   0.373892
    3             0.238428   0.587458   0.501733   0.285165   0.395043
    4             0.045103   0.199161   0.195054   0.831751   0.426848
    5             0.038453   0.133558   0.021513   0.167261   0.038276
    6             0.042867   0.080432   0.121287   0.017686   0.200336
    7             0.041603   0.009440   0.219747   0.021528   0.080372
    8             0.009873   0.079974   0.252494   0.064271   0.071605

                     11         12         13         14         15

                  2.000000   2.000000   2.000000   1.999678   1.910225

    1             0.473839   0.583785   0.034702  -0.001089   0.907396
    2             0.328605   0.366463   0.242524   0.012845   0.939744
    3             0.251173   0.087219   0.181608   0.666217   0.023747
    4             0.532391   0.180374   1.221766   1.321705   0.039338
    5             0.219783   0.160413   0.017939   0.000000   0.000000
    6             0.000851   0.338279   0.005994   0.000000   0.000000
    7             0.093903   0.280159   0.030021   0.000000   0.000000
    8             0.099454   0.003309   0.265447   0.000000   0.000000

                     16         17

                  0.088794   0.001303

    1             0.046491   0.000590
    2             0.039020   0.000584
    3             0.000859   0.000056
    4             0.002425   0.000073
    5             0.000000   0.000000
    6             0.000000   0.000000
    7             0.000000   0.000000
    8             0.000000   0.000000
 WARNING! MCSCF POPULATIONS SHOWN ABOVE ARE FOR THE NATURAL ORBITALS.
 IGNORE THE ABOVE DATA FOR MCSCF FUNCTIONS WHICH ARE NOT OF -FORS- TYPE.
 THE FOLLOWING POPULATIONS ARE CORRECT FOR ANY MCSCF WAVEFUNCTION.

               ----- POPULATIONS IN EACH AO -----
                             MULLIKEN      LOWDIN
              1  C  1  S      1.99647     1.98122
              2  C  1  S      0.66097     0.35967
              3  C  1  X      0.51078     0.47655
              4  C  1  Y      0.74490     0.66350
              5  C  1  Z      0.72200     0.64573
              6  C  1  S      0.60560     0.33725
              7  C  1  X      0.43616     0.46686
              8  C  1  Y      0.25818     0.39436
              9  C  1  Z      0.38190     0.45632
             10  C  1 XX     -0.01999     0.10346
             11  C  1 YY      0.02764     0.18465
             12  C  1 ZZ      0.03320     0.18062
             13  C  1 XY      0.00506     0.00857
             14  C  1 XZ      0.00139     0.00215
             15  C  1 YZ      0.01395     0.02471
             16  C  2  S      1.99655     1.98005
             17  C  2  S      0.66583     0.35832
             18  C  2  X      0.54446     0.50024
             19  C  2  Y      0.75380     0.66854
             20  C  2  Z      0.71100     0.63810
             21  C  2  S      0.54138     0.31291
             22  C  2  X      0.44020     0.46843
             23  C  2  Y      0.26003     0.38683
             24  C  2  Z      0.23464     0.36132
             25  C  2 XX     -0.01779     0.10606
             26  C  2 YY      0.03076     0.18658
             27  C  2 ZZ      0.02350     0.17483
             28  C  2 XY      0.00559     0.00914
             29  C  2 XZ      0.00195     0.00466
             30  C  2 YZ      0.01459     0.02779
             31  C  3  S      1.99677     1.97510
             32  C  3  S      0.69700     0.36245
             33  C  3  X      0.39443     0.35599
             34  C  3  Y      0.72827     0.64573
             35  C  3  Z      0.72880     0.63822
             36  C  3  S      0.43599     0.30245
             37  C  3  X      0.27439     0.32905
             38  C  3  Y      0.17221     0.32897
             39  C  3  Z      0.14741     0.32906
             40  C  3 XX     -0.02324     0.09878
             41  C  3 YY      0.04754     0.21810
             42  C  3 ZZ      0.02909     0.19507
             43  C  3 XY      0.01396     0.02337
             44  C  3 XZ      0.00810     0.01582
             45  C  3 YZ      0.03314     0.06400
             46  O  4  S      1.99559     1.97777
             47  O  4  S      0.91494     0.71533
             48  O  4  X      0.75586     0.71334
             49  O  4  Y      0.96671     0.90660
             50  O  4  Z      1.09812     1.05883
             51  O  4  S      0.95917     0.46890
             52  O  4  X      0.59366     0.61020
             53  O  4  Y      0.50596     0.58490
             54  O  4  Z      0.67063     0.68774
             55  O  4 XX      0.00054     0.16991
             56  O  4 YY      0.01297     0.18863
             57  O  4 ZZ      0.00547     0.17636
             58  O  4 XY      0.01079     0.01200
             59  O  4 XZ      0.00323     0.00362
             60  O  4 YZ      0.00873     0.01623
             61  H  5  S      0.51785     0.47897
             62  H  5  S      0.27959     0.34821
             63  H  6  S      0.51862     0.47892
             64  H  6  S      0.28966     0.35509
             65  H  7  S      0.51551     0.47830
             66  H  7  S      0.26187     0.34394
             67  H  8  S      0.52796     0.49735
             68  H  8  S      0.31802     0.37726

          ----- MULLIKEN ATOMIC OVERLAP POPULATIONS -----
          (OFF-DIAGONAL ELEMENTS NEED TO BE MULTIPLIED BY 2)

             1           2           3           4           5

    1    5.1332118
    2    0.5022046   5.2143734
    3   -0.0339567   0.3563004   4.4571443
    4    0.0029887  -0.0618710   0.5354783   8.0670433
    5    0.3901532  -0.0303787   0.0016977  -0.0000427   0.4603616
    6    0.3966749  -0.0486157  -0.0015550   0.0000404  -0.0223340
    7   -0.0285004   0.3807284  -0.0244561   0.0019871  -0.0018981
    8    0.0154401  -0.1062553   0.3931954  -0.0432497  -0.0001136

             6           7           8

    6    0.4778316
    7    0.0023893   0.4444530
    8    0.0038466   0.0026739   0.5804371

          TOTAL MULLIKEN AND LOWDIN ATOMIC POPULATIONS
       ATOM         MULL.POP.    CHARGE          LOW.POP.     CHARGE
    1 C             6.378216   -0.378216         6.285639   -0.285639
    2 C             6.206486   -0.206486         6.183801   -0.183801
    3 C             5.683848    0.316152         5.882143    0.117857
    4 O             8.502374   -0.502374         8.290362   -0.290362
    5 H             0.797445    0.202555         0.827187    0.172813
    6 H             0.808278    0.191722         0.834011    0.165989
    7 H             0.777377    0.222623         0.822247    0.177753
    8 H             0.845974    0.154026         0.874610    0.125390

          ---------------------
          ELECTROSTATIC MOMENTS
          ---------------------

 POINT   1           X           Y           Z (BOHR)    CHARGE
                 0.000000   -0.111994   -0.102023        0.00 (A.U.)
         DX          DY          DZ         /D/  (DEBYE)
     0.000000    2.755119    2.147602    3.493261
 ...... END OF PROPERTY EVALUATION ......
 STEP CPU TIME =     0.01 TOTAL CPU TIME =          2.4 (      0.0 MIN)
 TOTAL WALL CLOCK TIME=          2.5 SECONDS, CPU UTILIZATION IS    99.40%
               733303  WORDS OF DYNAMIC MEMORY USED
 EXECUTION OF GAMESS TERMINATED NORMALLY 00:24:01 30-APR-2024    
 DDI: 263640 bytes (0.3 MB / 0 MWords) used by master data server.

 ----------------------------------------
 CPU timing information for all processes
 ========================================
 0: 2.80 + 0.366 = 2.447
 ----------------------------------------
 ddikick.x: exited gracefully.
----- accounting info -----
Files used on the master node muhka were:
-rw-r--r-- 1 humbel users    19733 Apr 30 00:23 /scratch/humbel.257276/acro_cas.F05
-rw-r--r-- 1 humbel users 16381456 Apr 30 00:23 /scratch/humbel.257276/acro_cas.F08
-rw-r--r-- 1 humbel users   198792 Apr 30 00:24 /scratch/humbel.257276/acro_cas.F09
-rw-r--r-- 1 humbel users  2159520 Apr 30 00:24 /scratch/humbel.257276/acro_cas.F10
-rw-r--r-- 1 humbel users      320 Apr 30 00:24 /scratch/humbel.257276/acro_cas.F12
-rw-r--r-- 1 humbel users   147952 Apr 30 00:24 /scratch/humbel.257276/acro_cas.F13
-rw-r--r-- 1 humbel users   181248 Apr 30 00:24 /scratch/humbel.257276/acro_cas.F15
-rw-r--r-- 1 humbel users   419520 Apr 30 00:24 /scratch/humbel.257276/acro_cas.F23
Tue Apr 30 12:24:04 AM CEST 2024
0.0u 0.0s 0:05.64 2.4% 0+0k 40+280io 0pf+0w
