----- GAMESS execution script 'rungms' -----
This job is running on host pahry
under operating system Linux at Tue Apr 30 02:26:54 PM CEST 2024
Available scratch disk space (Kbyte units) at beginning of the job is
Filesystem                1K-blocks   Used Available Use% Mounted on
/dev/mapper/vg--ctom-home 220826268 291860 220534408   1% /scratch
GAMESS temporary binary files will be written to /scratch/humbel.257302
GAMESS supplementary output files will be written to /home/humbel/di-aude/gamess/audeprog
Copying input file ./acro_cas_cs_csf_NSTATE2.inp to your run's scratch directory...

 Distributed Data Interface kickoff program.
 Initiating 1 compute processes on 1 nodes to run the following command:
 /home/humbel/fuming/softwares/gamess/2020-R2/gamess.xmvb.x acro_cas_cs_csf_NSTATE2 

          *******************************************************
          *                                                     *
          *          GAMESS VERSION = 30 SEP 2020 (R2)          *
          *                                                     *
          *              doi.org/10.1063/5.0005188              *
          *                                                     *
          **************** 64 BIT LINUX VERSION *****************

  GAMESS HAS BEEN MADE POSSIBLE WITH IMPORTANT CONTRIBUTIONS FROM
  THE FOLLOWING INDIVIDUALS (IN ALPHABETICAL ORDER):

     IVANA ADAMOVIC, CHRISTINE AIKENS, TOMOKO AKAMA,
     YURI ALEXEEV, YURIKO AOKI, POOJA ARORA, TOSHIO ASADA,
     ANDREY ASADCHEV, KIM K. BALDRIDGE, PRADIPTA BANDYOPADHYAY,
     MARIA BARYSZ, ROB BELL, JONATHAN BENTZ, COLLEEN BERTONI,
     JERRY A. BOATZ, BRETT BODE, KURT BRORSEN, KURT R. BRORSEN,
     LAIMUTIS BYTAUTAS, CALEB CARLIN, LAURA CARRINGTON,
     GALINA CHABAN, BENOIT CHAMPAGNE, WEI CHEN, MAHITO CHIBA,
     DAN CHIPMAN, CHEOL HO CHOI, TANNER CULPITT,
     DIPAYAN DATTA, PAUL DAY, ALBERT DEFUSCO,
     NUWAN DESILVA, J. EMILIANO DEUSTUA,
     TIM DUDLEY, MICHEL DUPUIS, STEVEN T. ELBERT,
     DMITRI FEDOROV, ALEX FINDLATER, GRAHAM FLETCHER,
     MARK FREITAG, CHRISTIAN FRIEDL, DAVID GARMER,
     IGOR S. GERASIMOV, KURT GLAESEMANN, MARK S. GORDON,
     JEFFREY GOUR, FENG LONG GU, EMILIE B. GUIDEZ,
     ANASTASIA GUNINA, SHARON HAMMES-SCHIFFER, MASATAKE HARUTA,
     KIMIHIKO HIRAO, YASUHIRO IKABATA, TZVETELIN IORDANOV,
     STEPHAN IRLE, KAZUYA ISHIMURA, JOE IVANIC, FRANK JENSEN,
     JAN H. JENSEN, VISVALDAS KAIRYS, MUNEAKI KAMIYA,
     MICHIO KATOUDA, NAOAKI KAWAKAMI, DAN KEMP, BERNARD KIRTMAN,
     KAZUO KITAURA, MARIUSZ KLOBUKOWSKI, MASATO KOBAYASHI,
     PRAKASHAN KORAMBATH, JACEK KORCHOWIEC, SHIRO KOSEKI,
     KAROL KOWALSKI, JIMMY KROMANN, STANISLAW KUCHARSKI,
     HENRY KURTZ, SAROM SOK LEANG, HUI LI, SHUHUA LI, WEI LI,
     JESSE LUTZ, ALEKSANDR O. LYKHIN, MARCIN MAKOWSKI,
     JOANI MATO, NIKITA MATSUNAGA, BENEDETTA MENNUCCI,
     GRANT MERRILL, NORIYUKI MINEZAWA, VLADIMIR MIRONOV,
     EISAKU MIYOSHI, JOHN A. MONTGOMERY JR., HIROTOSHI MORI,
     JONATHAN MULLIN, MONIKA MUSIAL, SHIGERU NAGASE,
     TAKESHI NAGATA, HIROMI NAKAI, TAKAHITO NAKAJIMA,
     YUYA NAKAJIMA, HARUYUKI NAKANO, HIROYA NAKATA, SEAN NEDD,
     HEATHER NETZLOFF, KIET A. NGUYEN, YOSHIO NISHIMOTO,
     BOSILJKA NJEGIC, RYAN OLSON, MIKE PAK, ROBERTO PEVERATI,
     BUU PHAM, PIOTR PIECUCH, ANNA POMOGAEVA, DAVID POOLE,
     SPENCER PRUITT, OLIVIER QUINET, LUKE ROSKOP,
     KLAUS RUEDENBERG, ANDREW SAND, TOSAPORN SATTASATHUCHANA,
     NOZOMI SAWADA, MICHAEL W. SCHMIDT, PATRICK E. SCHNEIDER,
     JUNJI SEINO, PRACHI SHARMA, JUN SHEN, JIM SHOEMAKER,
     YINAN SHU, DEJUN SI, JONATHAN SKONE, LYUDMILA SLIPCHENKO,
     TONY SMITH, JIE SONG, MARK SPACKMAN, CASPER STEINMANN,
     WALT STEVENS, PEIFENG SU, SHUJUN SU, CHET SWALINA,
     TETSUYA TAKETSUGU, ZHEN TAO, NANDUN THELLAMUREGE
     SEIKEN TOKURA, JACOPO TOMASI, TSUGUKI TOUMA, TAKAO TSUNEDA,
     HIROAKI UMEDA, JORGE LUIS GALVEZ VALLEJO, YALI WANG,
     SIMON WEBB, AARON WEST, THERESA L. WINDUS, MARTA WLOCH,
     PENG XU, KIYOSHI YAGI, SUSUMU YANAGISAWA, YANG YANG,
     SOOHAENG YOO, TAKESHI YOSHIKAWA, FEDERICO ZAHARIEV,
     TOBY ZENG

  WHO ARE SUPPORTED BY THEIR INSTITUTION/UNIVERSITY/COMPANY/GROUP
  (IN ALPHABETICAL ORDER):

     EP ANALYTICS, FACULTES UNIVERSITAIRES NOTRE-DAME DE LA PAIX,
     INSTITUTE FOR MOLECULAR SCIENCE, IOWA STATE UNIVERSITY,
     JACKSON STATE UNIVERSITY, JOHANNES KEPLER UNIVERSITY LINZ,
     KYUSHU UNIVERSITY, MICHIGAN STATE UNIVERSITY,
     MIE UNIVERSITY, MOSCOW STATE UNIVERSITY,
     N. COPERNICUS UNIVERSITY, NAGOYA UNIVERSITY,
     NANJING UNIVERSITY, NAT. INST. OF ADVANCED INDUSTRIAL
     SCIENCE AND TECHNOLOGY, NATIONAL INST. OF STANDARDS AND
     TECHNOLOGY, NESMEYANOV INSTITUTE OF ORGANOELEMENT COMPOUNDS
     OF RUSSIAN ACADEMY OF SCIENCES, OSAKA PREFECTURE UNIVERSITY,
     PENNSYLVANIA STATE UNIVERSITY, TOKYO INSTITUTE OF TECHNOLOGY,
     UNIVERSITY OF AARHUS, UNIVERSITY OF ALBERTA,
     UNIVERSITY OF CALIFORNIA AT SANTA BARBARA,
     UNIVERSITY OF COPENHAGEN, UNIVERSITY OF IOWA,
     UNIVERSITY OF MEMPHIS, UNIVERSITY OF MINNESOTA,
     UNIVERSITY OF NEBRASKA, UNIVERSITY OF NEW ENGLAND,
     UNIVERSITY OF NOTRE DAME, UNIVERSITY OF PISA,
     UNIVERSITY OF SILESIA, UNIVERSITY OF TOKYO,
     UNIVERSITY OF ZURICH, WASEDA UNIVERSITY, YALE UNIVERSITY

  GAMESS SOFTWARE MANAGEMENT TEAM FOR THIS RELEASE:
     MARK S. GORDON (TEAM LEAD),
     BRETT BODE (SENIOR ADVISOR),
     GIUSEPPE BARCA,
     COLLEEN BERTONI,
     KRISTOPHER KEIPERT (ADVISOR),
     SAROM S. LEANG (DEVELOPMENT LEAD),
     BUU PHAM,
     JORGE LUIS GALVEZ VALLEJO (WEBSITE ADMINISTRATOR),
     PENG XU

 EXECUTION OF GAMESS BEGUN 14:26:54 30-APR-2024    

            ECHO OF THE FIRST FEW INPUT CARDS -
 INPUT CARD>!   File created by MacMolPlt 7.4.3                                             
 INPUT CARD>! $CONTRL   SCFTYP=NONE  RUNTYP=ENERGY                                          
 INPUT CARD>! $CONTRL   SCFTYP=RHF   RUNTYP=ENERGY  $END                                    
 INPUT CARD> $CONTRL   SCFTYP=MCSCF RUNTYP=ENERGY  $END                                     
 INPUT CARD>! $CONTRL   CITYP=GUGA  $END                                                    
 INPUT CARD> $CONTRL   MAXIT=90  MULT=1  $END                                               
 INPUT CARD> $CONTRL   VBTYP=NONE  $END                                                     
 INPUT CARD> $MCSCF  MAXIT=100 $END                                                         
 INPUT CARD> $MCSCF CISTEP=GUGA $END                                                        
 INPUT CARD> $DRT    GROUP=CS  FORS=.TRUE. NMCC=13 NDOC=2 NVAL=2 $END                       
 INPUT CARD> $GUGDIA NSTATE=2 $END                                                          
 INPUT CARD> $GUGDM2 WSTATE(1)=.0,1.0 $END                                                  
 INPUT CARD>                                                                                
 INPUT CARD> $SYSTEM TIMLIM=525600 MEMORY=1000000 $END                                      
 INPUT CARD> $BASIS GBASIS=N31 NGAUSS=6 NDFUNC=1 $END                                       
 INPUT CARD> $GUESS GUESS=MOREAD NORB=17 $END                                               
 INPUT CARD> $GUESS NORDER=1 IORDER(13)=14,13 $END                                          
 INPUT CARD> $SCF DIRSCF=.TRUE. $END                                                        
 INPUT CARD>                                                                                
 INPUT CARD> $DATA                                                                          
 INPUT CARD>                                                                                
 INPUT CARD>  Cs                                                                            
 INPUT CARD>                                                                                
 INPUT CARD>C 6.      1.209467     1.295575   0.000000                                      
 INPUT CARD>C 6.     0.000000     0.718809    0.00000                                       
 INPUT CARD>C 6.      -0.148676    -0.750912   0.000000                                     
 INPUT CARD>O 8.      -1.214692    -1.329532   0.000000                                     
 INPUT CARD>H 1.0     1.336176     2.380594   0.000000                                      
 INPUT CARD>H 1.0     2.121140     0.688472   0.000000                                      
 INPUT CARD>H 1.0     -0.927519     1.299734   0.000000                                     
 INPUT CARD>H 1.0     0.822993    -1.313379   0.000000                                      
 INPUT CARD> $END                                                                           
 INPUT CARD> $VEC                                                                           
 INPUT CARD> 1  1 5.51520407E-06 3.63588596E-05-1.98848506E-05-1.47483115E-05-0.00000000E+00
 INPUT CARD> 1  2-9.00462281E-05 3.65144427E-05 1.28151886E-04-0.00000000E+00 2.35058543E-05
 INPUT CARD> 1  3-1.49293941E-05 1.41217944E-05-3.17571406E-06-0.00000000E+00-0.00000000E+00
 INPUT CARD> 1  4-7.95955386E-07 1.38682935E-06 1.95210423E-05 6.93822084E-06-0.00000000E+00
 INPUT CARD> 1  5-5.52142306E-05-6.56867159E-06 6.20827048E-05-0.00000000E+00-1.97730173E-05
 INPUT CARD> 1  6 5.40034640E-06-1.72746914E-05-7.04693471E-05-0.00000000E+00-0.00000000E+00
 INPUT CARD> 1  7-4.01320322E-06 4.48330815E-04 8.37785754E-05 4.44305724E-05-0.00000000E+00
 INPUT CARD> 1  8-3.39854923E-04 5.71848947E-04 3.29367340E-04-0.00000000E+00-6.31367996E-04
 INPUT CARD> 1  9-2.29460051E-04-2.64079711E-05-3.72107883E-04-0.00000000E+00-0.00000000E+00
 INPUT CARD> 1 10 9.94694430E-01 2.09405777E-02 1.37155990E-03 7.51334984E-04-0.00000000E+00
 INPUT CARD> 1 11 4.66059977E-03 4.01503977E-05 8.58495774E-06-0.00000000E+00-3.63753418E-03
 INPUT CARD> 1 12-3.82276596E-03-4.20124502E-03 1.59284164E-04-0.00000000E+00-0.00000000E+00
 INPUT CARD> 1 13-2.09147748E-06-6.35291420E-05 1.94439895E-05 5.34766521E-06-9.93865158E-07
 INPUT CARD> 1 14-2.22430807E-05-3.31158920E-05-1.29927937E-04                              
 INPUT CARD> 2  1-3.51657938E-05-2.56050362E-04 1.15568007E-05 1.50169193E-04 0.00000000E+00
 INPUT CARD> 2  2-9.01371523E-05-2.55812967E-05-7.72970994E-04 0.00000000E+00 8.30632632E-05
 INPUT CARD> 2  3 3.08176575E-05-1.25060850E-04 4.07319780E-05 0.00000000E+00 0.00000000E+00
    1000000 WORDS OF MEMORY AVAILABLE

     BASIS OPTIONS
     -------------
     GBASIS=N31          IGAUSS=       6      POLAR=POPN31  
     NDFUNC=       1     NFFUNC=       0     DIFFSP=       F
     NPFUNC=       0      DIFFS=       F     BASNAM=        


     RUN TITLE
     ---------
                                                                                 

 THE POINT GROUP OF THE MOLECULE IS CS      
 THE ORDER OF THE PRINCIPAL AXIS IS     0

 ATOM      ATOMIC                      COORDINATES (BOHR)
           CHARGE         X                   Y                   Z
 C           6.0     2.2855612212        2.4482817465        0.0000000000
 C           6.0     0.0000000000        1.3583520475        0.0000000000
 C           6.0    -0.2809569010       -1.4190179209        0.0000000000
 O           8.0    -2.2954350395       -2.5124511719        0.0000000000
 H           1.0     2.5250065114        4.4986703480        0.0000000000
 H           1.0     4.0083733816        1.3010234302        0.0000000000
 H           1.0    -1.7527567584        2.4561411169        0.0000000000
 H           1.0     1.5552312598       -2.4819264280        0.0000000000

          INTERNUCLEAR DISTANCES (ANGS.)
          ------------------------------

                1 C          2 C          3 C          4 O          5 H     

   1 C       0.0000000    1.3399513 *  2.4561477 *  3.5731966    1.0923925 *
   2 C       1.3399513 *  0.0000000    1.4772218 *  2.3814234 *  2.1323451 *
   3 C       2.4561477 *  1.4772218 *  0.0000000    1.2129267 *  3.4657056  
   4 O       3.5731966    2.3814234 *  1.2129267 *  0.0000000    4.5024396  
   5 H       1.0923925 *  2.1323451 *  3.4657056    4.5024396    0.0000000  
   6 H       1.0953181 *  2.1213569 *  2.6877297 *  3.8987325    1.8653271 *
   7 H       2.1369900 *  1.0944247 *  2.1935691 *  2.6449023 *  2.5085002 *
   8 H       2.6374236 *  2.1925112 *  1.1227243 *  2.0377490 *  3.7294495  

                6 H          7 H          8 H     

   1 C       1.0953181 *  2.1369900 *  2.6374236 *
   2 C       2.1213569 *  1.0944247 *  2.1925112 *
   3 C       2.6877297 *  2.1935691 *  1.1227243 *
   4 O       3.8987325    2.6449023 *  2.0377490 *
   5 H       1.8653271 *  2.5085002 *  3.7294495  
   6 H       0.0000000    3.1093348    2.3859156 *
   7 H       3.1093348    0.0000000    3.1452586  
   8 H       2.3859156 *  3.1452586    0.0000000  

  * ... LESS THAN  3.000


     ATOMIC BASIS SET
     ----------------
 THE CONTRACTED PRIMITIVE FUNCTIONS HAVE BEEN UNNORMALIZED
 THE CONTRACTED BASIS FUNCTIONS ARE NOW NORMALIZED TO UNITY

  SHELL TYPE  PRIMITIVE        EXPONENT          CONTRACTION COEFFICIENT(S)

 C         

      1   S       1          3047.5248800    0.001834737132
      1   S       2           457.3695180    0.014037322813
      1   S       3           103.9486850    0.068842622264
      1   S       4            29.2101553    0.232184443216
      1   S       5             9.2866630    0.467941348435
      1   S       6             3.1639270    0.362311985337

      2   L       7             7.8682723   -0.119332419775    0.068999066591
      2   L       8             1.8812885   -0.160854151696    0.316423960957
      2   L       9             0.5442493    1.143456437840    0.744308290898

      3   L      10             0.1687145    1.000000000000    1.000000000000

      4   D      11             0.8000000    1.000000000000

 C         

      5   S      12          3047.5248800    0.001834737132
      5   S      13           457.3695180    0.014037322813
      5   S      14           103.9486850    0.068842622264
      5   S      15            29.2101553    0.232184443216
      5   S      16             9.2866630    0.467941348435
      5   S      17             3.1639270    0.362311985337

      6   L      18             7.8682723   -0.119332419775    0.068999066591
      6   L      19             1.8812885   -0.160854151696    0.316423960957
      6   L      20             0.5442493    1.143456437840    0.744308290898

      7   L      21             0.1687145    1.000000000000    1.000000000000

      8   D      22             0.8000000    1.000000000000

 C         

      9   S      23          3047.5248800    0.001834737132
      9   S      24           457.3695180    0.014037322813
      9   S      25           103.9486850    0.068842622264
      9   S      26            29.2101553    0.232184443216
      9   S      27             9.2866630    0.467941348435
      9   S      28             3.1639270    0.362311985337

     10   L      29             7.8682723   -0.119332419775    0.068999066591
     10   L      30             1.8812885   -0.160854151696    0.316423960957
     10   L      31             0.5442493    1.143456437840    0.744308290898

     11   L      32             0.1687145    1.000000000000    1.000000000000

     12   D      33             0.8000000    1.000000000000

 O         

     13   S      34          5484.6716600    0.001831074430
     13   S      35           825.2349460    0.013950172200
     13   S      36           188.0469580    0.068445078098
     13   S      37            52.9645000    0.232714335992
     13   S      38            16.8975704    0.470192897984
     13   S      39             5.7996353    0.358520852987

     14   L      40            15.5396162   -0.110777549525    0.070874268231
     14   L      41             3.5999336   -0.148026262701    0.339752839147
     14   L      42             1.0137618    1.130767015354    0.727158577316

     15   L      43             0.2700058    1.000000000000    1.000000000000

     16   D      44             0.8000000    1.000000000000

 H         

     17   S      45            18.7311370    0.033494604338
     17   S      46             2.8253944    0.234726953484
     17   S      47             0.6401217    0.813757326146

     18   S      48             0.1612778    1.000000000000

 H         

     19   S      49            18.7311370    0.033494604338
     19   S      50             2.8253944    0.234726953484
     19   S      51             0.6401217    0.813757326146

     20   S      52             0.1612778    1.000000000000

 H         

     21   S      53            18.7311370    0.033494604338
     21   S      54             2.8253944    0.234726953484
     21   S      55             0.6401217    0.813757326146

     22   S      56             0.1612778    1.000000000000

 H         

     23   S      57            18.7311370    0.033494604338
     23   S      58             2.8253944    0.234726953484
     23   S      59             0.6401217    0.813757326146

     24   S      60             0.1612778    1.000000000000

 TOTAL NUMBER OF BASIS SET SHELLS             =   24
 NUMBER OF CARTESIAN GAUSSIAN BASIS FUNCTIONS =   68
 NUMBER OF ELECTRONS                          =   30
 CHARGE OF MOLECULE                           =    0
 SPIN MULTIPLICITY                            =    1
 NUMBER OF OCCUPIED ORBITALS (ALPHA)          =   15
 NUMBER OF OCCUPIED ORBITALS (BETA )          =   15
 TOTAL NUMBER OF ATOMS                        =    8
 THE NUCLEAR REPULSION ENERGY IS      102.6894631254

     $CONTRL OPTIONS
     ---------------
 SCFTYP=MCSCF        RUNTYP=ENERGY       EXETYP=RUN     
 MPLEVL=       0     CITYP =NONE         CCTYP =NONE         VBTYP =NONE    
 DFTTYP=NONE         TDDFT =NONE    
 MULT  =       1     ICHARG=       0     NZVAR =       0     COORD =UNIQUE  
 PP    =NONE         RELWFN=NONE         LOCAL =NONE         NUMGRD=       F
 ISPHER=      -1     NOSYM =       0     MAXIT =      90     UNITS =ANGS    
 PLTORB=       F     MOLPLT=       F     AIMPAC=       F     FRIEND=        
 NPRINT=       7     IREST =       0     GEOM  =INPUT   
 NORMF =       0     NORMP =       0     ITOL  =      20     ICUT  =       9
 INTTYP=BEST         GRDTYP=BEST         QMTTOL= 1.0E-06

     $SYSTEM OPTIONS
     ---------------
  REPLICATED MEMORY=     1000000 WORDS (ON EVERY NODE).
 DISTRIBUTED MEMDDI=           0 MILLION WORDS IN AGGREGATE,
 MEMDDI DISTRIBUTED OVER   1 PROCESSORS IS           0 WORDS/PROCESSOR.
 TOTAL MEMORY REQUESTED ON EACH PROCESSOR=     1000000 WORDS.
 TIMLIM=      525600.00 MINUTES, OR     365.0 DAYS.
 PARALL= F  BALTYP=  DLB     KDIAG=    0  COREFL= F
 MXSEQ2=     300 MXSEQ3=     150  mem10=         0  mem22=         0

 Using Gaussians for PCM contribution to MEP, params: 0.10000E+01 0.10000E-07

          ----------------
          PROPERTIES INPUT
          ----------------

     MOMENTS            FIELD           POTENTIAL          DENSITY
 IEMOM =       1   IEFLD =       0   IEPOT =       0   IEDEN =       0
 WHERE =COMASS     WHERE =NUCLEI     WHERE =NUCLEI     WHERE =NUCLEI  
 OUTPUT=BOTH       OUTPUT=BOTH       OUTPUT=BOTH       OUTPUT=BOTH    
 IEMINT=       0   IEFINT=       0                     IEDINT=       0
                                                       MORB  =       0

     -------------------------------
     INTEGRAL TRANSFORMATION OPTIONS
     -------------------------------
     NWORD  =            0
     CUTOFF = 1.0E-09     MPTRAN =       0
     DIRTRF =       F     AOINTS =DUP     

          ----------------------
          MCSCF INPUT PARAMETERS
          ----------------------
 CONVERGER SELECTION: FOCAS = F  SOSCF = T  FULLNR = F  QUD = F  JACOBI = F
 SECULAR EQUATION METHOD CISTEP = GUGA    
 --- GENERAL INPUT OPTIONS:
 MAXIT =     100  MICIT =       5  ACURCY= 1.000E-05
 DAMP  =   0.000  CANONC=       T  ENGTOL= 1.000E-10
 EKT   =       F  NPUNCH=       2  NWORD =         0
 REGENERATE CI AFTER CONVERGENCE = NONE    
 DIABATIZATION AFTER CONVERGENCE =        F
 --- INPUT FOR SOSCF CONVERGER:
 FORS  =       T  NOFO  =       1

          ----------------------
          INTEGRAL INPUT OPTIONS
          ----------------------
 NOPK  =       1 NORDER=       0 SCHWRZ=       T

     ------------------------------------------
     THE POINT GROUP IS CS , NAXIS= 0, ORDER= 2
     ------------------------------------------

     DIMENSIONS OF THE SYMMETRY SUBSPACES ARE
 A'  =   52     A'' =   16

 ..... DONE SETTING UP THE RUN .....
 STEP CPU TIME =     0.03 TOTAL CPU TIME =          0.0 (      0.0 MIN)
 TOTAL WALL CLOCK TIME=          0.0 SECONDS, CPU UTILIZATION IS    89.83%

          ********************
          1 ELECTRON INTEGRALS
          ********************
 TIME TO DO   DIPOLE INTEGRALS=      0.00
 ...... END OF ONE-ELECTRON INTEGRALS ......
 STEP CPU TIME =     0.00 TOTAL CPU TIME =          0.0 (      0.0 MIN)
 TOTAL WALL CLOCK TIME=          0.0 SECONDS, CPU UTILIZATION IS    90.91%

          -------------
          GUESS OPTIONS
          -------------
          GUESS =MOREAD            NORB  =      17          NORDER=       1
          MIX   =       F          PRTMO =       F          PUNMO =       F
          TOLZ  = 1.0E-08          TOLE  = 1.0E-05
          SYMDEN=       F          PURIFY=       F

 INITIAL GUESS ORBITALS GENERATED BY MOREAD   ROUTINE.

 SYMMETRIES FOR INITIAL GUESS ORBITALS FOLLOW.   BOTH SET(S).
    17 ORBITALS ARE OCCUPIED (    4 CORE ORBITALS).
     1=A'       2=A'       3=A'       4=A'       5=A'       6=A'       7=A'  
     8=A'       9=A'      10=A'      11=A'      12=A'      13=A'      14=A'' 
    15=A''     16=A''     17=A''     18=A'      19=A'      20=A'      21=A'  
    22=A'      23=A'      24=A'      25=A'      26=A'      27=A'      28=A'  
    29=A'      30=A'      31=A'      32=A'      33=A'      34=A'      35=A'  
    36=A'      37=A'      38=A'      39=A'      40=A'      41=A'      42=A'  
    43=A'      44=A'      45=A'      46=A'      47=A'      48=A'      49=A'  
    50=A'      51=A'      52=A'      53=A'      54=A'      55=A'      56=A'  
    57=A''     58=A''     59=A''     60=A''     61=A''     62=A''     63=A'' 
    64=A''     65=A''     66=A''     67=A''     68=A'' 
 ...... END OF INITIAL ORBITAL SELECTION ......
 STEP CPU TIME =     0.00 TOTAL CPU TIME =          0.0 (      0.0 MIN)
 TOTAL WALL CLOCK TIME=          0.0 SECONDS, CPU UTILIZATION IS    91.76%

                    ----------------------
                    AO INTEGRAL TECHNOLOGY
                    ----------------------
     S,P,L SHELL ROTATED AXIS INTEGRALS, REPROGRAMMED BY
        KAZUYA ISHIMURA (IMS) AND JOSE SIERRA (SYNSTAR).
     S,P,D,L SHELL ROTATED AXIS INTEGRALS PROGRAMMED BY
        KAZUYA ISHIMURA (INSTITUTE FOR MOLECULAR SCIENCE).
     S,P,D,F,G SHELL TO TOTAL QUARTET ANGULAR MOMENTUM SUM 5,
        ERIC PROGRAM BY GRAHAM FLETCHER (ELORET AND NASA ADVANCED
        SUPERCOMPUTING DIVISION, AMES RESEARCH CENTER).
     S,P,D,F,G,L SHELL GENERAL RYS QUADRATURE PROGRAMMED BY
        MICHEL DUPUIS (PACIFIC NORTHWEST NATIONAL LABORATORY).

          --------------------
          2 ELECTRON INTEGRALS
          --------------------

 THE -PK- OPTION IS OFF, THE INTEGRALS ARE NOT IN SUPERMATRIX FORM.
 STORING   15000 INTEGRALS/RECORD ON DISK, USING 12 BYTES/INTEGRAL.
 TWO ELECTRON INTEGRAL EVALUATION REQUIRES   90696 WORDS OF MEMORY.
 SCHWARZ INEQUALITY OVERHEAD:      2343 INTEGRALS, T=        0.00
 II,JST,KST,LST =  1  1  1  1 NREC =         1 INTLOC =    1
 II,JST,KST,LST =  2  1  1  1 NREC =         1 INTLOC =    2
 II,JST,KST,LST =  3  1  1  1 NREC =         1 INTLOC =   34
 II,JST,KST,LST =  4  1  1  1 NREC =         1 INTLOC =  214
 II,JST,KST,LST =  5  1  1  1 NREC =         1 INTLOC = 1189
 II,JST,KST,LST =  6  1  1  1 NREC =         1 INTLOC = 2364
 II,JST,KST,LST =  7  1  1  1 NREC =         1 INTLOC = 9259
 II,JST,KST,LST =  8  1  1  1 NREC =         2 INTLOC = 6298
 II,JST,KST,LST =  9  1  1  1 NREC =         4 INTLOC = 7025
 II,JST,KST,LST = 10  1  1  1 NREC =         4 INTLOC =14815
 II,JST,KST,LST = 11  1  1  1 NREC =         7 INTLOC = 9788
 II,JST,KST,LST = 12  1  1  1 NREC =        11 INTLOC = 5673
 II,JST,KST,LST = 13  1  1  1 NREC =        19 INTLOC = 3094
 II,JST,KST,LST = 14  1  1  1 NREC =        20 INTLOC = 6109
 II,JST,KST,LST = 15  1  1  1 NREC =        27 INTLOC = 1737
 II,JST,KST,LST = 16  1  1  1 NREC =        36 INTLOC =14144
 II,JST,KST,LST = 17  1  1  1 NREC =        54 INTLOC = 9971
 II,JST,KST,LST = 18  1  1  1 NREC =        57 INTLOC =10186
 II,JST,KST,LST = 19  1  1  1 NREC =        61 INTLOC =12813
 II,JST,KST,LST = 20  1  1  1 NREC =        65 INTLOC = 8679
 II,JST,KST,LST = 21  1  1  1 NREC =        70 INTLOC = 4184
 II,JST,KST,LST = 22  1  1  1 NREC =        75 INTLOC = 1706
 II,JST,KST,LST = 23  1  1  1 NREC =        80 INTLOC = 5680
 II,JST,KST,LST = 24  1  1  1 NREC =        85 INTLOC =11175
 SCHWARZ INEQUALITY TEST SKIPPED        4668 INTEGRAL BLOCKS.
 TOTAL NUMBER OF NONZERO TWO-ELECTRON INTEGRALS =             1358670
         91 INTEGRAL RECORDS WERE STORED ON DISK FILE  8.
  ...... END OF TWO-ELECTRON INTEGRALS .....
 STEP CPU TIME =     0.22 TOTAL CPU TIME =          0.3 (      0.0 MIN)
 TOTAL WALL CLOCK TIME=          0.3 SECONDS, CPU UTILIZATION IS    98.11%

          -----------------
          MCSCF CALCULATION
          -----------------

 ----- NUCLEAR ENERGY ----- =       102.6894631254

          -----------------------     ----------------------------
          GUGA DISTINCT ROW TABLE     WRITTEN BY B.R.BROOKS,P.SAXE
          -----------------------     ----------------------------

      GROUP=CS           NPRT=       0
       FORS=       T   INTACT=       F
       FOCI=       F   MXNINT=   50000
       SOCI=       F   MXNEME=   10000
     IEXCIT=       0

      -CORE-    -INTERNAL-  -EXTERNAL-
     NFZC=   0   NDOC=   2   NEXT=   0
     NMCC=  13   NAOS=   0   NFZV=   0
                 NBOS=   0
                 NALP=   0
                 NVAL=   2

 THE MAXIMUM ELECTRON EXCITATION WILL BE   4

 SYMMETRIES FOR THE  13 CORE,   4 ACTIVE,   0 EXTERNAL MO-S ARE
     CORE= A'    A'    A'    A'    A'    A'    A'    A'    A'    A'  
           A'    A'    A'  
   ACTIVE= A''   A''   A''   A'' 
           DOC   DOC   VAL   VAL 

 MOLECULAR CHARGE          =    0
 NUMBER OF ALPHA ELECTRONS =   15
 NUMBER OF  BETA ELECTRONS =   15

 THE ELECTRONIC STATE IS  1-A'  

 THE DISTINCT ROW TABLE HAS        14 ROWS.
  THE WAVEFUNCTION CONTAINS        20 WALKS (CSF-S).

 TOTAL NUMBER OF INTEGRALS =         73
 NUMBER OF INTEGRALS/GROUP =         73
 NUMBER OF INTEGRAL GROUPS =          1
 MAXIMUM RECORD SIZES ARE     500 FOR UNIT 11      22 FOR UNIT 12
                            30001 FOR UNIT 15   30001 FOR UNIT 16
 ...... END OF -DRT- GENERATION ...... 
 STEP CPU TIME =     0.01 TOTAL CPU TIME =          0.3 (      0.0 MIN)
 TOTAL WALL CLOCK TIME=          0.3 SECONDS, CPU UTILIZATION IS    98.15%
 OPENING FILE DAFL30 WITH      81 LOGICAL RECORDS OF    4624 WORDS
 WITH A MAXIMUM OF         243 PHYSICAL RECORDS OF    2048 WORDS

          ------------------------------
          CASSCF INTEGRAL TRANSFORMATION
          ------------------------------
 AO INTEGRALS WILL BE READ IN FROM DISK...

 NUMBER OF CORE MOLECULAR ORBITALS     =    13
 NUMBER OF OCCUPIED MOLECULAR ORBITALS =    17
 TOTAL NUMBER OF MOLECULAR ORBITALS    =    68
 TOTAL NUMBER OF ATOMIC ORBITALS       =    68

 ----- CHOOSING THREE STEPS TRANSFORMATION -----
 NUMBER OF WORDS USED      =     733303
 NUMBER OF WORDS AVAILABLE =     999999
 NUMBER OF PASSES          =          1

 ----- NUCLEAR REPULSION ENERGY =    102.68946313
 ----- FROZEN CORE ENERGY       =   -289.72359875

 ... SYMMETRY ...           CPU =    0.00
 ... (PQ|RS) -> (PQ|KL) ... CPU =    0.06
 ... (PQ|KL) -> (IJ|KL) ... CPU =    0.00

 NUMBER OF (PQ|KL) INTEGRALS WRITTEN      14757
 NUMBER OF (IJ|KL) INTEGRALS WRITTEN         55
 ..... END OF CAS INTEGRAL TRANSFORMATION .....
 STEP CPU TIME =     0.06 TOTAL CPU TIME =          0.3 (      0.0 MIN)
 TOTAL WALL CLOCK TIME=          0.3 SECONDS, CPU UTILIZATION IS    98.49%

          ------------------------
          GUGA-CI INTEGRAL SORTING
          ------------------------

     80057 WORDS NEEDED TO SORT             73 GUGA INTEGRALS IN MEMORY
    999999 WORDS ARE AVAILABLE
 CHOOSING IN-MEMORY SORTING...
 IN CORE ALGORITHM SORTED             10 NON-ZERO 1E- INTEGRALS
 IN CORE ALGORITHM SORTED             55 NON-ZERO 2E- INTEGRALS
 ...... END OF INTEGRAL SORTING ...... 
 STEP CPU TIME =     0.00 TOTAL CPU TIME =          0.3 (      0.0 MIN)
 TOTAL WALL CLOCK TIME=          0.3 SECONDS, CPU UTILIZATION IS    98.49%

 -------------------------     ---------------------------------------
 ENERGY MATRIX CALCULATION     WRITTEN BY B.R.BROOKS,W.D.LAIDIG,P.SAXE
 -------------------------     ---------------------------------------

 COMPUTING THE HAMILTONIAN FOR THE        20 CSF-S...

         318 IS THE TOTAL NUMBER OF GENERATED LOOPS
         318 WERE CREATED BY THE LOOP-DRIVEN ALGORITHM
           0 WERE CREATED IMPLICITLY

         318 IS THE TOTAL NUMBER OF PROCESSED LOOPS
          64     DIAGONAL LOOPS ARE STORED ON WORK15 IN     1 BUFFERS OF  10000 ELEMENTS.
         254 OFF DIAGONAL LOOPS ARE STORED ON WORK16 IN     1 BUFFERS OF  10000 ELEMENTS.
 ...... END OF ENERGY MATRIX CALCULATION ...... 
 STEP CPU TIME =     0.00 TOTAL CPU TIME =          0.3 (      0.0 MIN)
 TOTAL WALL CLOCK TIME=          0.3 SECONDS, CPU UTILIZATION IS    98.50%

          -----------------------------------------
          DAVIDSON METHOD CI-MATRIX DIAGONALIZATION
                   WRITTEN BY STEVE ELBERT
          -----------------------------------------
 NUMBER OF STATES REQUESTED =     2
 MAX. NUMB. OF EXPAN. VEC   =    30
 MAX. NUMB. IMPROVED STATES =     2
 MAX. NUMB. OF ITERATIONS   =    50
 CONVERGENCE CRITERION      =    1.0E-05

 CHOOSING TO SOLVE SECULAR EQUATION IN MEMORY
 NUMBER OF WORDS AVAILABLE =     999999
 NUMBER OF WORDS USED      =      31460
 ENERGY MATRIX BUFFER SIZE =      10000
 SOLUTION FOUND WITH DIRECT METHOD

 STATE #    1  ENERGY =    -190.801123793

      CSF      COEF    OCCUPANCY (IGNORING CORE)
      ---      ----    --------- --------- -----
        1    0.966817  2200
        4   -0.059282  2002
        6   -0.063052  0202
       10    0.081364  2011
       11   -0.098541  1111
       12   -0.083303  0211
       15   -0.152327  2020
       17   -0.081647  0220

 STATE #    2  ENERGY =    -190.493745175

      CSF      COEF    OCCUPANCY (IGNORING CORE)
      ---      ----    --------- --------- -----
        2    0.347729  2101
        3    0.113643  1201
        4   -0.130054  2002
        5   -0.154207  1102
        7    0.491251  2110
        8   -0.440994  1210
        9    0.229693  1111
       10    0.141451  2011
       12   -0.060242  0211
       15    0.372576  2020
       16    0.364351  1120
       17   -0.190490  0220
 ...... END OF CI-MATRIX DIAGONALIZATION ......
 STEP CPU TIME =     0.00 TOTAL CPU TIME =          0.3 (      0.0 MIN)
 TOTAL WALL CLOCK TIME=          0.3 SECONDS, CPU UTILIZATION IS    98.50%

          -------------------------------------
          2-PARTICLE DENSITY MATRIX CALCULATION
          -------------------------------------
 2 BODY DENSITY IS AN AVERAGE OF  1 STATE(S).
   STATE    WEIGHT          ENERGY
     2    1.000000     -190.4937451753
          318 -DM2- LOOPS WERE GENERATED
          318 WERE CREATED BY THE LOOP-DRIVEN ALGORITHM
            0 WERE CREATED IMPLICITLY
          1 RECORDS OF LENGTH 50000 WRITTEN TO FILE 15
 ...... END OF 2-PARTICLE DENSITY MATRIX CALCULATION ......
 STEP CPU TIME =     0.00 TOTAL CPU TIME =          0.3 (      0.0 MIN)
 TOTAL WALL CLOCK TIME=          0.3 SECONDS, CPU UTILIZATION IS    98.32%

          ----------------------------------
          2-PARTICLE DENSITY MATRIX LABELING
          ----------------------------------
      96577 WORDS NEEDED TO LABEL DM2 MATRIX
          1 RECORDS OF LENGTH 50000  READ FROM FILE 15
          1 RECORDS OF LENGTH 15000 WRITTEN TO FILE 16
 ...... END OF 2-PARTICLE DENSITY MATRIX LABELING ......
 STEP CPU TIME =     0.00 TOTAL CPU TIME =          0.3 (      0.0 MIN)
 TOTAL WALL CLOCK TIME=          0.3 SECONDS, CPU UTILIZATION IS    98.23%

          --------------
          -DM2- ORDERING
          --------------
      30066 WORDS NEEDED (    999999 AVAILABLE) TO ORDER DM2 IN MEMORY
 CHOOSING IN MEMORY ORDERING...
                               1 RECORDS OF LENGTH 15000  READ FROM FILE 16
         55 DM2 VALUES IN      1 RECORDS OF LENGTH 15000 WRITTEN TO FILE 15
 ...... END OF -DM2- ORDERING ...... 
 STEP CPU TIME =     0.00 TOTAL CPU TIME =          0.3 (      0.0 MIN)
 TOTAL WALL CLOCK TIME=          0.3 SECONDS, CPU UTILIZATION IS    95.96%

          --------------------------------------
          APPROXIMATE SECOND-ORDER MCSCF PROGRAM
          --------------------------------------
          PROGRAM WRITTEN BY G.CHABAN, A.MARQUEZ, AND M.DUPUIS

  NUMBER OF WORDS NEEDED     =      82373
  NUMBER AVAILABLE           =     999999

 ----- GAMMA(IJKL)*(PQ|KL) PRODUCTS ----- CPU TIME =      0.001
 ----- ORBITAL SYMMETRY             ----- CPU TIME =      0.001
 ----- FOCK OPERATORS CONSTRUCTION  ----- CPU TIME =      0.024
 ----- WARNING : CORE-ACTIVE GAP    =    0.02895
     MICIT =   1 ASYMM =    0.055021 ROTMAX =    0.027770
 ----- EFFECTIVE FOCK + ROTATE ORBS ----- CPU TIME =      0.002
     MICIT =   2 ASYMM =    0.038173 ROTMAX =    0.005505
     MICIT =   3 ASYMM =    0.034743 ROTMAX =    0.007753
     MICIT =   4 ASYMM =    0.030352 ROTMAX =    0.008787
     MICIT =   5 ASYMM =    0.026160 ROTMAX =    0.009676
 ..... DONE WITH CASSCF ORBITAL UPDATE .....
 STEP CPU TIME =     0.04 TOTAL CPU TIME =          0.4 (      0.0 MIN)
 TOTAL WALL CLOCK TIME=          0.4 SECONDS, CPU UTILIZATION IS    96.41%

 ITER     TOTAL ENERGY      DEL(E)  LAGRANGIAN ASYMMETRY   SQCDF  MICIT   DAMP
   1     -190.493745175 -0.493745175  0.055021   58   16 2.777E-02  5   0.0000
       ----------START APPROXIMATE SECOND ORDER MCSCF----------
   2     -190.523095769 -0.029350593  0.028637   58   16 3.372E-03  1   0.0000
   3     -190.527719481 -0.004623713  0.017226   58   16 5.436E-03  1   0.0000
   4     -190.530282609 -0.002563127  0.009029   63   16 7.980E-04  1   0.0000
   5     -190.530874872 -0.000592263  0.006655   59   16 4.936E-04  1   0.0000
   6     -190.531162264 -0.000287393  0.003930   62   16 4.723E-05  1   0.0000
   7     -190.531228100 -0.000065836  0.003382   59   16 2.449E-05  1   0.0000
   8     -190.531260210 -0.000032110  0.001373   59   16 3.906E-05  1   0.0000
   9     -190.531277671 -0.000017461  0.000616   62   17 1.793E-05  1   0.0000
  10     -190.531285410 -0.000007739  0.000431   61   17 1.813E-05  1   0.0000
  11     -190.531291236 -0.000005825  0.000417   62   15 5.194E-06  1   0.0000
  12     -190.531293492 -0.000002257  0.000326   62   16 1.644E-06  1   0.0000
  13     -190.531294307 -0.000000815  0.000337   59   16 3.496E-07  1   0.0000
  14     -190.531294603 -0.000000296  0.000145   62   16 8.434E-08  1   0.0000
  15     -190.531294695 -0.000000092  0.000051   62   16 3.245E-08  1   0.0000
  16     -190.531294720 -0.000000025  0.000023   59   16 7.554E-09  1   0.0000
  17     -190.531294726 -0.000000006  0.000015   59   16 2.529E-09  1   0.0000
  18     -190.531294728 -0.000000002  0.000010   59   14 7.790E-10  1   0.0000

          --------------------
          LAGRANGIAN CONVERGED
          --------------------

 FINAL MCSCF ENERGY IS     -190.5312947281 AFTER  18 ITERATIONS

 -MCCI- BASED ON OPTIMIZED ORBITALS
 ----------------------------------

 PLEASE NOTE: IF THE ACTIVE ORBITALS ARE CANONICALIZED BELOW,
 THE FOLLOWING CI EXPANSION COEFFICIENTS AND THE DENSITY DO NOT
 CORRESPOND TO THE PRINTED ORBITALS.  THE PRINTED EXPANSIONS MATCH
 THE ORBITALS USED DURING THE LAST ITERATION.  IF YOU WISH TO SEE
 CI EXPANSIONS BASED ON THE CANONICAL (OR NATURAL) ORBITALS, YOU
 MUST RUN A CI CALCULATION WITH THAT ORBITAL CHOICE READ IN $VEC.

 STATE #    1  ENERGY =    -190.796135861

      CSF      COEF    OCCUPANCY (IGNORING CORE)
      ---      ----    --------- --------- -----
        1    0.939644  2200
        2    0.016806  2101
        3    0.078257  1201
        4   -0.065125  2002
        5   -0.001514  1102
        6   -0.081631  0202
        7    0.077110  2110
        8    0.106127  1210
        9   -0.044231  1111
       10    0.087941  2011
       11   -0.122815  1111
       12   -0.106856  0211
       13   -0.006043  1012
       14    0.015743  0112
       15   -0.180011  2020
       16   -0.048379  1120
       17   -0.094104  0220
       18    0.025750  1021
       19   -0.014661  0121
       20    0.039901  0022

 STATE #    2  ENERGY =    -190.531294728

      CSF      COEF    OCCUPANCY (IGNORING CORE)
      ---      ----    --------- --------- -----
        1    0.057617  2200
        2    0.377584  2101
        3    0.097763  1201
        4   -0.156689  2002
        5   -0.166042  1102
        6    0.051334  0202
        7    0.397148  2110
        8   -0.380599  1210
        9    0.250552  1111
       10    0.158918  2011
       11    0.046499  1111
       12   -0.095101  0211
       13    0.029965  1012
       14    0.023088  0112
       15    0.417942  2020
       16    0.398962  1120
       17   -0.227849  0220
       18    0.026931  1021
       19   -0.006847  0121
       20    0.003519  0022

 DENSITY MATRIX OVER ACTIVE MO-S

             1           2           3           4

    1    1.4639105
    2    0.0224566   0.9952102
    3   -0.3606873   0.1583851   1.1763427
    4    0.1320038  -0.1144260   0.2111689   0.3645365

 FORMING THE "STANDARD FOCK OPERATOR" USING INTEGRALS FROM DISK...
    13 FILLED,    4 ACTIVE, AND   51 VIRTUAL ORBITALS  WILL BE CANONICALIZED

          ----------------------
          MCSCF NATURAL ORBITALS
          ----------------------

                      1          2          3          4          5
                  -20.5889   -11.2842   -11.2501   -11.2481    -1.3984
                     A'         A'         A'         A'         A'  
    1  C  1  S    0.000006   0.019118  -0.011862   0.995254  -0.002671
    2  C  1  S    0.000039   0.000306  -0.000559   0.028161   0.007720
    3  C  1  X   -0.000021   0.000322   0.000006  -0.000613  -0.003522
    4  C  1  Y   -0.000020   0.000148   0.000130  -0.000319  -0.004224
    5  C  1  Z   -0.000000   0.000000  -0.000000   0.000000   0.000000
    6  C  1  S   -0.000054   0.004427  -0.000014  -0.010837   0.006549
    7  C  1  X    0.000017  -0.001370  -0.000072   0.000718  -0.003641
    8  C  1  Y    0.000162  -0.001204  -0.000644   0.000408   0.011987
    9  C  1  Z   -0.000000   0.000000  -0.000000   0.000000   0.000000
   10  C  1 XX    0.000025  -0.000567   0.000121  -0.001842   0.000141
   11  C  1 YY   -0.000015  -0.000301   0.000067  -0.002168   0.000231
   12  C  1 ZZ    0.000017  -0.000194  -0.000085  -0.002694   0.000165
   13  C  1 XY   -0.000003  -0.000108   0.000043   0.000267   0.000200
   14  C  1 XZ   -0.000000   0.000000  -0.000000   0.000000   0.000000
   15  C  1 YZ   -0.000000   0.000000  -0.000000   0.000000   0.000000
   16  C  2  S   -0.000003   0.995420  -0.011296  -0.019877  -0.016595
   17  C  2  S   -0.000008   0.027667  -0.000205  -0.000705   0.030060
   18  C  2  X    0.000023   0.000607  -0.000085  -0.000322  -0.006841
   19  C  2  Y    0.000008   0.000383   0.000130  -0.000141  -0.022943
   20  C  2  Z   -0.000000   0.000000  -0.000000   0.000000   0.000000
   21  C  2  S    0.000011  -0.013347   0.002737   0.003731   0.026066
   22  C  2  X   -0.000076  -0.001441   0.000502   0.000847  -0.014891
   23  C  2  Y    0.000004   0.000817  -0.001221   0.000778  -0.015066
   24  C  2  Z   -0.000000   0.000000  -0.000000   0.000000   0.000000
   25  C  2 XX   -0.000024  -0.001470  -0.000224  -0.000428  -0.000178
   26  C  2 YY    0.000004  -0.001781  -0.000547  -0.000296   0.006657
   27  C  2 ZZ   -0.000019  -0.002501  -0.000095  -0.000085  -0.001505
   28  C  2 XY   -0.000070   0.000272  -0.000067  -0.000114   0.002474
   29  C  2 XZ   -0.000000   0.000000  -0.000000   0.000000   0.000000
   30  C  2 YZ   -0.000000   0.000000  -0.000000   0.000000   0.000000
   31  C  3  S   -0.000008   0.011158   0.995419   0.011603  -0.105708
   32  C  3  S    0.000468   0.000270   0.028141   0.000121   0.194313
   33  C  3  X    0.000098  -0.000012  -0.001609  -0.000051  -0.151091
   34  C  3  Y    0.000057  -0.000062  -0.000613   0.000006  -0.076201
   35  C  3  Z   -0.000000   0.000000  -0.000000   0.000000   0.000000
   36  C  3  S   -0.000565   0.004173  -0.006485  -0.000176   0.034812
   37  C  3  X    0.000721   0.000307  -0.002699   0.000763   0.035913
   38  C  3  Y    0.000336   0.001737  -0.001758   0.000156   0.001340
   39  C  3  Z   -0.000000   0.000000  -0.000000   0.000000   0.000000
   40  C  3 XX   -0.000643  -0.000238  -0.001429  -0.000014   0.023414
   41  C  3 YY   -0.000224  -0.000517  -0.002029   0.000083  -0.004770
   42  C  3 ZZ   -0.000063  -0.000157  -0.002642  -0.000088  -0.017433
   43  C  3 XY   -0.000387   0.000016   0.000730   0.000062   0.022763
   44  C  3 XZ   -0.000000   0.000000  -0.000000   0.000000   0.000000
   45  C  3 YZ   -0.000000   0.000000  -0.000000   0.000000   0.000000
   46  O  4  S    0.994627   0.000015  -0.000259  -0.000042  -0.200372
   47  O  4  S    0.021125   0.000026   0.000726  -0.000159   0.450798
   48  O  4  X    0.001389   0.000020   0.000149  -0.000014   0.123198
   49  O  4  Y    0.000772   0.000005   0.000066  -0.000005   0.068551
   50  O  4  Z   -0.000000   0.000000  -0.000000   0.000000   0.000000
   51  O  4  S    0.005015  -0.000430  -0.003866   0.000976   0.409693
   52  O  4  X    0.000070  -0.000056  -0.002219   0.000150   0.046249
   53  O  4  Y    0.000031  -0.000275  -0.001094   0.000179   0.029675
   54  O  4  Z   -0.000000   0.000000  -0.000000   0.000000   0.000000
   55  O  4 XX   -0.003737   0.000094  -0.000241  -0.000132   0.015842
   56  O  4 YY   -0.003926   0.000086   0.000181  -0.000080   0.005468
   57  O  4 ZZ   -0.004393   0.000002   0.000430  -0.000099  -0.003568
   58  O  4 XY    0.000161  -0.000005  -0.000333   0.000016   0.010377
   59  O  4 XZ   -0.000000   0.000000  -0.000000   0.000000   0.000000
   60  O  4 YZ   -0.000000   0.000000  -0.000000   0.000000   0.000000
   61  H  5  S   -0.000006  -0.000051   0.000048  -0.000120  -0.000288
   62  H  5  S   -0.000082   0.000136   0.000432   0.001912  -0.006533
   63  H  6  S    0.000024  -0.000100  -0.000114  -0.000083   0.002467
   64  H  6  S    0.000014  -0.000260  -0.000093   0.001956   0.003381
   65  H  7  S   -0.000008  -0.000143  -0.000029  -0.000095   0.005997
   66  H  7  S   -0.000041   0.001672   0.000261  -0.000268  -0.001756
   67  H  8  S   -0.000036  -0.000121   0.000010  -0.000078   0.022138
   68  H  8  S   -0.000153  -0.000161   0.002062  -0.000234  -0.011167

                      6          7          8          9         10
                   -1.0806    -0.8684    -0.7708    -0.6741    -0.6557
                     A'         A'         A'         A'         A'  
    1  C  1  S   -0.142033  -0.125005  -0.051116  -0.017705  -0.015764
    2  C  1  S    0.272446   0.237322   0.096112   0.032731   0.025296
    3  C  1  X   -0.108302   0.033221   0.156658   0.080728   0.258958
    4  C  1  Y   -0.056446   0.049952  -0.027655   0.241778  -0.042185
    5  C  1  Z   -0.000000  -0.000000  -0.000000  -0.000000   0.000000
    6  C  1  S    0.204677   0.257680   0.130553   0.064210   0.074172
    7  C  1  X   -0.009367   0.009216   0.045580   0.021503   0.095811
    8  C  1  Y   -0.013006   0.017607  -0.007743   0.109158  -0.027897
    9  C  1  Z   -0.000000  -0.000000  -0.000000  -0.000000   0.000000
   10  C  1 XX    0.016924   0.007249  -0.001252  -0.007190  -0.001069
   11  C  1 YY    0.007854   0.013705   0.012456   0.014201   0.009962
   12  C  1 ZZ   -0.012847  -0.008969  -0.003350  -0.000135  -0.000943
   13  C  1 XY    0.007183  -0.005736  -0.008390  -0.005915  -0.013802
   14  C  1 XZ   -0.000000  -0.000000  -0.000000  -0.000000   0.000000
   15  C  1 YZ   -0.000000  -0.000000  -0.000000  -0.000000   0.000000
   16  C  2  S   -0.161071   0.064885   0.084123   0.021289   0.016456
   17  C  2  S    0.322166  -0.126953  -0.166819  -0.047284  -0.034728
   18  C  2  X    0.101468   0.139200   0.133182  -0.203432  -0.094993
   19  C  2  Y    0.028955   0.177812  -0.149483   0.098810  -0.242490
   20  C  2  Z   -0.000000  -0.000000  -0.000000  -0.000000   0.000000
   21  C  2  S    0.203042  -0.150459  -0.201335  -0.032545  -0.025949
   22  C  2  X   -0.006521   0.036117   0.051970  -0.082648  -0.029777
   23  C  2  Y    0.019193   0.037563  -0.059870   0.050471  -0.105467
   24  C  2  Z   -0.000000  -0.000000  -0.000000  -0.000000   0.000000
   25  C  2 XX    0.016423   0.006626  -0.012511   0.000205  -0.007704
   26  C  2 YY    0.006289  -0.016545  -0.000262   0.005596   0.006531
   27  C  2 ZZ   -0.014560   0.003670   0.006596   0.001018   0.002059
   28  C  2 XY    0.004852   0.010600   0.009325  -0.004386  -0.001499
   29  C  2 XZ   -0.000000  -0.000000  -0.000000  -0.000000   0.000000
   30  C  2 YZ   -0.000000  -0.000000  -0.000000  -0.000000   0.000000
   31  C  3  S   -0.045992   0.115148  -0.095507  -0.026200   0.004840
   32  C  3  S    0.087116  -0.226744   0.189877   0.062016  -0.007629
   33  C  3  X    0.047858  -0.053100   0.091485  -0.225615  -0.098376
   34  C  3  Y    0.092472  -0.112146  -0.112053  -0.094232   0.261931
   35  C  3  Z   -0.000000  -0.000000  -0.000000  -0.000000   0.000000
   36  C  3  S    0.077760  -0.204264   0.180372   0.002715  -0.032831
   37  C  3  X    0.018364  -0.032892   0.056949  -0.024518  -0.053117
   38  C  3  Y    0.021786  -0.024119  -0.021734  -0.000303   0.080926
   39  C  3  Z   -0.000000  -0.000000  -0.000000  -0.000000   0.000000
   40  C  3 XX   -0.003865  -0.000139   0.009950   0.009091  -0.001086
   41  C  3 YY    0.013292  -0.012634   0.000558  -0.011847  -0.005067
   42  C  3 ZZ   -0.002317   0.005544  -0.006576  -0.006152   0.001999
   43  C  3 XY   -0.002404   0.008963  -0.001533   0.008700  -0.005415
   44  C  3 XZ   -0.000000  -0.000000  -0.000000  -0.000000   0.000000
   45  C  3 YZ   -0.000000  -0.000000  -0.000000  -0.000000   0.000000
   46  O  4  S    0.032289  -0.066679   0.049379   0.056740  -0.008148
   47  O  4  S   -0.075295   0.153720  -0.114024  -0.130456   0.016805
   48  O  4  X    0.000036  -0.091468   0.205653   0.305564  -0.219544
   49  O  4  Y    0.016343  -0.091619  -0.007279   0.227844   0.270891
   50  O  4  Z   -0.000000  -0.000000  -0.000000  -0.000000   0.000000
   51  O  4  S   -0.076049   0.211962  -0.173519  -0.227589   0.038130
   52  O  4  X    0.002447  -0.044334   0.110238   0.174881  -0.130977
   53  O  4  Y    0.005765  -0.046803  -0.005044   0.132804   0.171748
   54  O  4  Z   -0.000000  -0.000000  -0.000000  -0.000000   0.000000
   55  O  4 XX   -0.002135  -0.003921   0.014738   0.015787  -0.019299
   56  O  4 YY   -0.000364  -0.001753  -0.006714   0.002658   0.016584
   57  O  4 ZZ   -0.000538   0.002679  -0.003550  -0.007658   0.000137
   58  O  4 XY    0.001121  -0.007978   0.003877   0.018106   0.010180
   59  O  4 XZ   -0.000000  -0.000000  -0.000000  -0.000000   0.000000
   60  O  4 YZ   -0.000000  -0.000000  -0.000000  -0.000000   0.000000
   61  H  5  S    0.066735   0.122315   0.042805   0.158890   0.012629
   62  H  5  S    0.013958   0.046873   0.019676   0.096836   0.012490
   63  H  6  S    0.068923   0.098108   0.120475  -0.017582   0.150984
   64  H  6  S    0.009287   0.036832   0.065513  -0.007456   0.096962
   65  H  7  S    0.078603  -0.061835  -0.172341   0.104281  -0.043210
   66  H  7  S    0.004372  -0.016997  -0.084046   0.059071  -0.016769
   67  H  8  S    0.025487  -0.080249   0.144594  -0.052371  -0.109564
   68  H  8  S    0.002837  -0.021656   0.073977  -0.044746  -0.072113

                     11         12         13         14         15
                   -0.6026    -0.5528    -0.4329     1.7155     1.1150
                     A'         A'         A'         A''        A'' 
    1  C  1  S   -0.011013  -0.005160  -0.003720   0.000000   0.000000
    2  C  1  S    0.030765   0.010884   0.005524   0.000000   0.000000
    3  C  1  X   -0.202799  -0.217932  -0.032076   0.000000   0.000000
    4  C  1  Y   -0.231236   0.271295  -0.070325   0.000000   0.000000
    5  C  1  Z    0.000000   0.000000  -0.000000  -0.182324   0.480546
    6  C  1  S   -0.004088   0.014500   0.066198   0.000000   0.000000
    7  C  1  X   -0.066294  -0.133781  -0.040860   0.000000   0.000000
    8  C  1  Y   -0.088585   0.187529  -0.082754   0.000000   0.000000
    9  C  1  Z    0.000000   0.000000  -0.000000  -0.243977   0.403341
   10  C  1 XX    0.010272  -0.017731   0.010188   0.000000   0.000000
   11  C  1 YY   -0.017659   0.016134  -0.010244   0.000000   0.000000
   12  C  1 ZZ   -0.000165  -0.000528  -0.000621   0.000000   0.000000
   13  C  1 XY    0.009740   0.023494  -0.006278   0.000000   0.000000
   14  C  1 XZ    0.000000   0.000000  -0.000000  -0.006504  -0.015062
   15  C  1 YZ    0.000000   0.000000  -0.000000  -0.004776  -0.005653
   16  C  2  S   -0.007943   0.013906   0.037471   0.000000   0.000000
   17  C  2  S    0.024149  -0.024834  -0.074011   0.000000   0.000000
   18  C  2  X    0.286929   0.183968   0.003257   0.000000   0.000000
   19  C  2  Y    0.056196  -0.121395   0.271571   0.000000   0.000000
   20  C  2  Z    0.000000   0.000000  -0.000000   0.223045   0.250278
   21  C  2  S   -0.005634  -0.059453  -0.237278   0.000000   0.000000
   22  C  2  X    0.109371   0.097719  -0.074409   0.000000   0.000000
   23  C  2  Y    0.008289  -0.122705   0.167868   0.000000   0.000000
   24  C  2  Z    0.000000   0.000000  -0.000000   0.224103   0.128918
   25  C  2 XX    0.006724  -0.018780   0.010442   0.000000   0.000000
   26  C  2 YY   -0.011344   0.011607  -0.008832   0.000000   0.000000
   27  C  2 ZZ   -0.000884   0.001097   0.000158   0.000000   0.000000
   28  C  2 XY    0.021096   0.022550  -0.008874   0.000000   0.000000
   29  C  2 XZ    0.000000   0.000000  -0.000000  -0.009717   0.023118
   30  C  2 YZ    0.000000   0.000000  -0.000000  -0.022792   0.018414
   31  C  3  S    0.016309  -0.029503  -0.002696   0.000000   0.000000
   32  C  3  S   -0.019842   0.056515  -0.006953   0.000000   0.000000
   33  C  3  X   -0.255613   0.059365   0.122636   0.000000   0.000000
   34  C  3  Y   -0.032883   0.116597  -0.207422   0.000000   0.000000
   35  C  3  Z    0.000000   0.000000  -0.000000   0.441752  -0.088396
   36  C  3  S   -0.117390   0.059522   0.060776   0.000000   0.000000
   37  C  3  X   -0.072636   0.015253   0.097610   0.000000   0.000000
   38  C  3  Y    0.011516   0.026372  -0.043944   0.000000   0.000000
   39  C  3  Z    0.000000   0.000000  -0.000000   0.346400  -0.180453
   40  C  3 XX    0.008792   0.005175   0.038211   0.000000   0.000000
   41  C  3 YY   -0.012805  -0.005120  -0.031982   0.000000   0.000000
   42  C  3 ZZ   -0.004305   0.000782  -0.001385   0.000000   0.000000
   43  C  3 XY    0.024140  -0.008858  -0.030393   0.000000   0.000000
   44  C  3 XZ    0.000000   0.000000  -0.000000  -0.010577  -0.010703
   45  C  3 YZ    0.000000   0.000000  -0.000000   0.006996  -0.000927
   46  O  4  S    0.022791  -0.004686   0.000673   0.000000   0.000000
   47  O  4  S   -0.049449   0.007663  -0.009128   0.000000   0.000000
   48  O  4  X    0.211252  -0.175450  -0.239034   0.000000   0.000000
   49  O  4  Y    0.254073   0.156677   0.416399   0.000000   0.000000
   50  O  4  Z    0.000000   0.000000  -0.000000   0.218040   0.265838
   51  O  4  S   -0.115155   0.033478   0.030303   0.000000   0.000000
   52  O  4  X    0.126822  -0.114433  -0.185138   0.000000   0.000000
   53  O  4  Y    0.157065   0.115188   0.334908   0.000000   0.000000
   54  O  4  Z    0.000000   0.000000  -0.000000   0.090680   0.208648
   55  O  4 XX    0.008055  -0.012811  -0.013916   0.000000   0.000000
   56  O  4 YY    0.006438   0.007823   0.009082   0.000000   0.000000
   57  O  4 ZZ   -0.005038   0.000456  -0.002236   0.000000   0.000000
   58  O  4 XY    0.017029   0.004087   0.006761   0.000000   0.000000
   59  O  4 XZ    0.000000   0.000000  -0.000000   0.021921   0.004341
   60  O  4 YZ    0.000000   0.000000  -0.000000   0.013895   0.003229
   61  H  5  S   -0.147141   0.171043  -0.060199   0.000000   0.000000
   62  H  5  S   -0.118904   0.119523  -0.052123   0.000000   0.000000
   63  H  6  S   -0.020492  -0.217864   0.031452   0.000000   0.000000
   64  H  6  S   -0.027330  -0.156615   0.044163   0.000000   0.000000
   65  H  7  S   -0.124066  -0.170312   0.072459   0.000000   0.000000
   66  H  7  S   -0.095539  -0.112954   0.086840   0.000000   0.000000
   67  H  8  S   -0.132330   0.027487   0.205153   0.000000   0.000000
   68  H  8  S   -0.104787   0.013120   0.233690   0.000000   0.000000

                     16         17
                    0.9323     0.2372
                     A''        A'' 
    1  C  1  S    0.000000  -0.000000
    2  C  1  S    0.000000  -0.000000
    3  C  1  X    0.000000  -0.000000
    4  C  1  Y    0.000000  -0.000000
    5  C  1  Z   -0.141596  -0.308433
    6  C  1  S    0.000000  -0.000000
    7  C  1  X    0.000000  -0.000000
    8  C  1  Y    0.000000  -0.000000
    9  C  1  Z   -0.068023  -0.420160
   10  C  1 XX    0.000000  -0.000000
   11  C  1 YY    0.000000  -0.000000
   12  C  1 ZZ    0.000000  -0.000000
   13  C  1 XY    0.000000  -0.000000
   14  C  1 XZ    0.007855  -0.022347
   15  C  1 YZ    0.004618  -0.011751
   16  C  2  S    0.000000  -0.000000
   17  C  2  S    0.000000  -0.000000
   18  C  2  X    0.000000  -0.000000
   19  C  2  Y    0.000000  -0.000000
   20  C  2  Z   -0.179392   0.481150
   21  C  2  S    0.000000  -0.000000
   22  C  2  X    0.000000  -0.000000
   23  C  2  Y    0.000000  -0.000000
   24  C  2  Z   -0.101581   0.643504
   25  C  2 XX    0.000000  -0.000000
   26  C  2 YY    0.000000  -0.000000
   27  C  2 ZZ    0.000000  -0.000000
   28  C  2 XY    0.000000  -0.000000
   29  C  2 XZ   -0.006071  -0.010387
   30  C  2 YZ    0.008325   0.003860
   31  C  3  S    0.000000  -0.000000
   32  C  3  S    0.000000  -0.000000
   33  C  3  X    0.000000  -0.000000
   34  C  3  Y    0.000000  -0.000000
   35  C  3  Z   -0.224223  -0.476656
   36  C  3  S    0.000000  -0.000000
   37  C  3  X    0.000000  -0.000000
   38  C  3  Y    0.000000  -0.000000
   39  C  3  Z   -0.286087  -0.368997
   40  C  3 XX    0.000000  -0.000000
   41  C  3 YY    0.000000  -0.000000
   42  C  3 ZZ    0.000000  -0.000000
   43  C  3 XY    0.000000  -0.000000
   44  C  3 XZ   -0.023754  -0.007379
   45  C  3 YZ   -0.018850   0.022242
   46  O  4  S    0.000000  -0.000000
   47  O  4  S    0.000000  -0.000000
   48  O  4  X    0.000000  -0.000000
   49  O  4  Y    0.000000  -0.000000
   50  O  4  Z    0.617139  -0.035178
   51  O  4  S    0.000000  -0.000000
   52  O  4  X    0.000000  -0.000000
   53  O  4  Y    0.000000  -0.000000
   54  O  4  Z    0.456033   0.152094
   55  O  4 XX    0.000000  -0.000000
   56  O  4 YY    0.000000  -0.000000
   57  O  4 ZZ    0.000000  -0.000000
   58  O  4 XY    0.000000  -0.000000
   59  O  4 XZ    0.012506  -0.014848
   60  O  4 YZ    0.006394  -0.003732
   61  H  5  S    0.000000  -0.000000
   62  H  5  S    0.000000  -0.000000
   63  H  6  S    0.000000  -0.000000
   64  H  6  S    0.000000  -0.000000
   65  H  7  S    0.000000  -0.000000
   66  H  7  S    0.000000  -0.000000
   67  H  8  S    0.000000  -0.000000
   68  H  8  S    0.000000  -0.000000

          ------------------------
          MCSCF OPTIMIZED ORBITALS
          ------------------------

                      1          2          3          4          5
                  -20.5889   -11.2842   -11.2501   -11.2481    -1.3984
                     A'         A'         A'         A'         A'  
    1  C  1  S    0.000006   0.019118  -0.011862   0.995254  -0.002671
    2  C  1  S    0.000039   0.000306  -0.000559   0.028161   0.007720
    3  C  1  X   -0.000021   0.000322   0.000006  -0.000613  -0.003522
    4  C  1  Y   -0.000020   0.000148   0.000130  -0.000319  -0.004224
    5  C  1  Z   -0.000000   0.000000  -0.000000   0.000000   0.000000
    6  C  1  S   -0.000054   0.004427  -0.000014  -0.010837   0.006549
    7  C  1  X    0.000017  -0.001370  -0.000072   0.000718  -0.003641
    8  C  1  Y    0.000162  -0.001204  -0.000644   0.000408   0.011987
    9  C  1  Z   -0.000000   0.000000  -0.000000   0.000000   0.000000
   10  C  1 XX    0.000025  -0.000567   0.000121  -0.001842   0.000141
   11  C  1 YY   -0.000015  -0.000301   0.000067  -0.002168   0.000231
   12  C  1 ZZ    0.000017  -0.000194  -0.000085  -0.002694   0.000165
   13  C  1 XY   -0.000003  -0.000108   0.000043   0.000267   0.000200
   14  C  1 XZ   -0.000000   0.000000  -0.000000   0.000000   0.000000
   15  C  1 YZ   -0.000000   0.000000  -0.000000   0.000000   0.000000
   16  C  2  S   -0.000003   0.995420  -0.011296  -0.019877  -0.016595
   17  C  2  S   -0.000008   0.027667  -0.000205  -0.000705   0.030060
   18  C  2  X    0.000023   0.000607  -0.000085  -0.000322  -0.006841
   19  C  2  Y    0.000008   0.000383   0.000130  -0.000141  -0.022943
   20  C  2  Z   -0.000000   0.000000  -0.000000   0.000000   0.000000
   21  C  2  S    0.000011  -0.013347   0.002737   0.003731   0.026066
   22  C  2  X   -0.000076  -0.001441   0.000502   0.000847  -0.014891
   23  C  2  Y    0.000004   0.000817  -0.001221   0.000778  -0.015066
   24  C  2  Z   -0.000000   0.000000  -0.000000   0.000000   0.000000
   25  C  2 XX   -0.000024  -0.001470  -0.000224  -0.000428  -0.000178
   26  C  2 YY    0.000004  -0.001781  -0.000547  -0.000296   0.006657
   27  C  2 ZZ   -0.000019  -0.002501  -0.000095  -0.000085  -0.001505
   28  C  2 XY   -0.000070   0.000272  -0.000067  -0.000114   0.002474
   29  C  2 XZ   -0.000000   0.000000  -0.000000   0.000000   0.000000
   30  C  2 YZ   -0.000000   0.000000  -0.000000   0.000000   0.000000
   31  C  3  S   -0.000008   0.011158   0.995419   0.011603  -0.105708
   32  C  3  S    0.000468   0.000270   0.028141   0.000121   0.194313
   33  C  3  X    0.000098  -0.000012  -0.001609  -0.000051  -0.151091
   34  C  3  Y    0.000057  -0.000062  -0.000613   0.000006  -0.076201
   35  C  3  Z   -0.000000   0.000000  -0.000000   0.000000   0.000000
   36  C  3  S   -0.000565   0.004173  -0.006485  -0.000176   0.034812
   37  C  3  X    0.000721   0.000307  -0.002699   0.000763   0.035913
   38  C  3  Y    0.000336   0.001737  -0.001758   0.000156   0.001340
   39  C  3  Z   -0.000000   0.000000  -0.000000   0.000000   0.000000
   40  C  3 XX   -0.000643  -0.000238  -0.001429  -0.000014   0.023414
   41  C  3 YY   -0.000224  -0.000517  -0.002029   0.000083  -0.004770
   42  C  3 ZZ   -0.000063  -0.000157  -0.002642  -0.000088  -0.017433
   43  C  3 XY   -0.000387   0.000016   0.000730   0.000062   0.022763
   44  C  3 XZ   -0.000000   0.000000  -0.000000   0.000000   0.000000
   45  C  3 YZ   -0.000000   0.000000  -0.000000   0.000000   0.000000
   46  O  4  S    0.994627   0.000015  -0.000259  -0.000042  -0.200372
   47  O  4  S    0.021125   0.000026   0.000726  -0.000159   0.450798
   48  O  4  X    0.001389   0.000020   0.000149  -0.000014   0.123198
   49  O  4  Y    0.000772   0.000005   0.000066  -0.000005   0.068551
   50  O  4  Z   -0.000000   0.000000  -0.000000   0.000000   0.000000
   51  O  4  S    0.005015  -0.000430  -0.003866   0.000976   0.409693
   52  O  4  X    0.000070  -0.000056  -0.002219   0.000150   0.046249
   53  O  4  Y    0.000031  -0.000275  -0.001094   0.000179   0.029675
   54  O  4  Z   -0.000000   0.000000  -0.000000   0.000000   0.000000
   55  O  4 XX   -0.003737   0.000094  -0.000241  -0.000132   0.015842
   56  O  4 YY   -0.003926   0.000086   0.000181  -0.000080   0.005468
   57  O  4 ZZ   -0.004393   0.000002   0.000430  -0.000099  -0.003568
   58  O  4 XY    0.000161  -0.000005  -0.000333   0.000016   0.010377
   59  O  4 XZ   -0.000000   0.000000  -0.000000   0.000000   0.000000
   60  O  4 YZ   -0.000000   0.000000  -0.000000   0.000000   0.000000
   61  H  5  S   -0.000006  -0.000051   0.000048  -0.000120  -0.000288
   62  H  5  S   -0.000082   0.000136   0.000432   0.001912  -0.006533
   63  H  6  S    0.000024  -0.000100  -0.000114  -0.000083   0.002467
   64  H  6  S    0.000014  -0.000260  -0.000093   0.001956   0.003381
   65  H  7  S   -0.000008  -0.000143  -0.000029  -0.000095   0.005997
   66  H  7  S   -0.000041   0.001672   0.000261  -0.000268  -0.001756
   67  H  8  S   -0.000036  -0.000121   0.000010  -0.000078   0.022138
   68  H  8  S   -0.000153  -0.000161   0.002062  -0.000234  -0.011167

                      6          7          8          9         10
                   -1.0806    -0.8684    -0.7708    -0.6741    -0.6557
                     A'         A'         A'         A'         A'  
    1  C  1  S   -0.142033  -0.125005  -0.051116  -0.017705  -0.015764
    2  C  1  S    0.272446   0.237322   0.096112   0.032731   0.025296
    3  C  1  X   -0.108302   0.033221   0.156658   0.080728   0.258958
    4  C  1  Y   -0.056446   0.049952  -0.027655   0.241778  -0.042185
    5  C  1  Z   -0.000000  -0.000000  -0.000000  -0.000000   0.000000
    6  C  1  S    0.204677   0.257680   0.130553   0.064210   0.074172
    7  C  1  X   -0.009367   0.009216   0.045580   0.021503   0.095811
    8  C  1  Y   -0.013006   0.017607  -0.007743   0.109158  -0.027897
    9  C  1  Z   -0.000000  -0.000000  -0.000000  -0.000000   0.000000
   10  C  1 XX    0.016924   0.007249  -0.001252  -0.007190  -0.001069
   11  C  1 YY    0.007854   0.013705   0.012456   0.014201   0.009962
   12  C  1 ZZ   -0.012847  -0.008969  -0.003350  -0.000135  -0.000943
   13  C  1 XY    0.007183  -0.005736  -0.008390  -0.005915  -0.013802
   14  C  1 XZ   -0.000000  -0.000000  -0.000000  -0.000000   0.000000
   15  C  1 YZ   -0.000000  -0.000000  -0.000000  -0.000000   0.000000
   16  C  2  S   -0.161071   0.064885   0.084123   0.021289   0.016456
   17  C  2  S    0.322166  -0.126953  -0.166819  -0.047284  -0.034728
   18  C  2  X    0.101468   0.139200   0.133182  -0.203432  -0.094993
   19  C  2  Y    0.028955   0.177812  -0.149483   0.098810  -0.242490
   20  C  2  Z   -0.000000  -0.000000  -0.000000  -0.000000   0.000000
   21  C  2  S    0.203042  -0.150459  -0.201335  -0.032545  -0.025949
   22  C  2  X   -0.006521   0.036117   0.051970  -0.082648  -0.029777
   23  C  2  Y    0.019193   0.037563  -0.059870   0.050471  -0.105467
   24  C  2  Z   -0.000000  -0.000000  -0.000000  -0.000000   0.000000
   25  C  2 XX    0.016423   0.006626  -0.012511   0.000205  -0.007704
   26  C  2 YY    0.006289  -0.016545  -0.000262   0.005596   0.006531
   27  C  2 ZZ   -0.014560   0.003670   0.006596   0.001018   0.002059
   28  C  2 XY    0.004852   0.010600   0.009325  -0.004386  -0.001499
   29  C  2 XZ   -0.000000  -0.000000  -0.000000  -0.000000   0.000000
   30  C  2 YZ   -0.000000  -0.000000  -0.000000  -0.000000   0.000000
   31  C  3  S   -0.045992   0.115148  -0.095507  -0.026200   0.004840
   32  C  3  S    0.087116  -0.226744   0.189877   0.062016  -0.007629
   33  C  3  X    0.047858  -0.053100   0.091485  -0.225615  -0.098376
   34  C  3  Y    0.092472  -0.112146  -0.112053  -0.094232   0.261931
   35  C  3  Z   -0.000000  -0.000000  -0.000000  -0.000000   0.000000
   36  C  3  S    0.077760  -0.204264   0.180372   0.002715  -0.032831
   37  C  3  X    0.018364  -0.032892   0.056949  -0.024518  -0.053117
   38  C  3  Y    0.021786  -0.024119  -0.021734  -0.000303   0.080926
   39  C  3  Z   -0.000000  -0.000000  -0.000000  -0.000000   0.000000
   40  C  3 XX   -0.003865  -0.000139   0.009950   0.009091  -0.001086
   41  C  3 YY    0.013292  -0.012634   0.000558  -0.011847  -0.005067
   42  C  3 ZZ   -0.002317   0.005544  -0.006576  -0.006152   0.001999
   43  C  3 XY   -0.002404   0.008963  -0.001533   0.008700  -0.005415
   44  C  3 XZ   -0.000000  -0.000000  -0.000000  -0.000000   0.000000
   45  C  3 YZ   -0.000000  -0.000000  -0.000000  -0.000000   0.000000
   46  O  4  S    0.032289  -0.066679   0.049379   0.056740  -0.008148
   47  O  4  S   -0.075295   0.153720  -0.114024  -0.130456   0.016805
   48  O  4  X    0.000036  -0.091468   0.205653   0.305564  -0.219544
   49  O  4  Y    0.016343  -0.091619  -0.007279   0.227844   0.270891
   50  O  4  Z   -0.000000  -0.000000  -0.000000  -0.000000   0.000000
   51  O  4  S   -0.076049   0.211962  -0.173519  -0.227589   0.038130
   52  O  4  X    0.002447  -0.044334   0.110238   0.174881  -0.130977
   53  O  4  Y    0.005765  -0.046803  -0.005044   0.132804   0.171748
   54  O  4  Z   -0.000000  -0.000000  -0.000000  -0.000000   0.000000
   55  O  4 XX   -0.002135  -0.003921   0.014738   0.015787  -0.019299
   56  O  4 YY   -0.000364  -0.001753  -0.006714   0.002658   0.016584
   57  O  4 ZZ   -0.000538   0.002679  -0.003550  -0.007658   0.000137
   58  O  4 XY    0.001121  -0.007978   0.003877   0.018106   0.010180
   59  O  4 XZ   -0.000000  -0.000000  -0.000000  -0.000000   0.000000
   60  O  4 YZ   -0.000000  -0.000000  -0.000000  -0.000000   0.000000
   61  H  5  S    0.066735   0.122315   0.042805   0.158890   0.012629
   62  H  5  S    0.013958   0.046873   0.019676   0.096836   0.012490
   63  H  6  S    0.068923   0.098108   0.120475  -0.017582   0.150984
   64  H  6  S    0.009287   0.036832   0.065513  -0.007456   0.096962
   65  H  7  S    0.078603  -0.061835  -0.172341   0.104281  -0.043210
   66  H  7  S    0.004372  -0.016997  -0.084046   0.059071  -0.016769
   67  H  8  S    0.025487  -0.080249   0.144594  -0.052371  -0.109564
   68  H  8  S    0.002837  -0.021656   0.073977  -0.044746  -0.072113

                     11         12         13         14         15
                   -0.6026    -0.5528    -0.4329    -0.4360    -0.2491
                     A'         A'         A'         A''        A'' 
    1  C  1  S   -0.011013  -0.005160  -0.003720  -0.000000   0.000000
    2  C  1  S    0.030765   0.010884   0.005524  -0.000000   0.000000
    3  C  1  X   -0.202799  -0.217932  -0.032076  -0.000000   0.000000
    4  C  1  Y   -0.231236   0.271295  -0.070325  -0.000000   0.000000
    5  C  1  Z    0.000000   0.000000  -0.000000   0.051428   0.421106
    6  C  1  S   -0.004088   0.014500   0.066198  -0.000000   0.000000
    7  C  1  X   -0.066294  -0.133781  -0.040860  -0.000000   0.000000
    8  C  1  Y   -0.088585   0.187529  -0.082754  -0.000000   0.000000
    9  C  1  Z    0.000000   0.000000  -0.000000  -0.007789   0.313137
   10  C  1 XX    0.010272  -0.017731   0.010188  -0.000000   0.000000
   11  C  1 YY   -0.017659   0.016134  -0.010244  -0.000000   0.000000
   12  C  1 ZZ   -0.000165  -0.000528  -0.000621  -0.000000   0.000000
   13  C  1 XY    0.009740   0.023494  -0.006278  -0.000000   0.000000
   14  C  1 XZ    0.000000   0.000000  -0.000000  -0.007828  -0.017487
   15  C  1 YZ    0.000000   0.000000  -0.000000  -0.004274  -0.007759
   16  C  2  S   -0.007943   0.013906   0.037471  -0.000000   0.000000
   17  C  2  S    0.024149  -0.024834  -0.074011  -0.000000   0.000000
   18  C  2  X    0.286929   0.183968   0.003257  -0.000000   0.000000
   19  C  2  Y    0.056196  -0.121395   0.271571  -0.000000   0.000000
   20  C  2  Z    0.000000   0.000000  -0.000000   0.208848   0.319409
   21  C  2  S   -0.005634  -0.059453  -0.237278  -0.000000   0.000000
   22  C  2  X    0.109371   0.097719  -0.074409  -0.000000   0.000000
   23  C  2  Y    0.008289  -0.122705   0.167868  -0.000000   0.000000
   24  C  2  Z    0.000000   0.000000  -0.000000   0.153733   0.201206
   25  C  2 XX    0.006724  -0.018780   0.010442  -0.000000   0.000000
   26  C  2 YY   -0.011344   0.011607  -0.008832  -0.000000   0.000000
   27  C  2 ZZ   -0.000884   0.001097   0.000158  -0.000000   0.000000
   28  C  2 XY    0.021096   0.022550  -0.008874  -0.000000   0.000000
   29  C  2 XZ    0.000000   0.000000  -0.000000   0.001235   0.020433
   30  C  2 YZ    0.000000   0.000000  -0.000000  -0.011310   0.010991
   31  C  3  S    0.016309  -0.029503  -0.002696  -0.000000   0.000000
   32  C  3  S   -0.019842   0.056515  -0.006953  -0.000000   0.000000
   33  C  3  X   -0.255613   0.059365   0.122636  -0.000000   0.000000
   34  C  3  Y   -0.032883   0.116597  -0.207422  -0.000000   0.000000
   35  C  3  Z    0.000000   0.000000  -0.000000   0.368757  -0.033326
   36  C  3  S   -0.117390   0.059522   0.060776  -0.000000   0.000000
   37  C  3  X   -0.072636   0.015253   0.097610  -0.000000   0.000000
   38  C  3  Y    0.011516   0.026372  -0.043944  -0.000000   0.000000
   39  C  3  Z    0.000000   0.000000  -0.000000   0.221647  -0.024956
   40  C  3 XX    0.008792   0.005175   0.038211  -0.000000   0.000000
   41  C  3 YY   -0.012805  -0.005120  -0.031982  -0.000000   0.000000
   42  C  3 ZZ   -0.004305   0.000782  -0.001385  -0.000000   0.000000
   43  C  3 XY    0.024140  -0.008858  -0.030393  -0.000000   0.000000
   44  C  3 XZ    0.000000   0.000000  -0.000000  -0.017305   0.010040
   45  C  3 YZ    0.000000   0.000000  -0.000000  -0.000449   0.014083
   46  O  4  S    0.022791  -0.004686   0.000673  -0.000000   0.000000
   47  O  4  S   -0.049449   0.007663  -0.009128  -0.000000   0.000000
   48  O  4  X    0.211252  -0.175450  -0.239034  -0.000000   0.000000
   49  O  4  Y    0.254073   0.156677   0.416399  -0.000000   0.000000
   50  O  4  Z    0.000000   0.000000  -0.000000   0.422219  -0.287568
   51  O  4  S   -0.115155   0.033478   0.030303  -0.000000   0.000000
   52  O  4  X    0.126822  -0.114433  -0.185138  -0.000000   0.000000
   53  O  4  Y    0.157065   0.115188   0.334908  -0.000000   0.000000
   54  O  4  Z    0.000000   0.000000  -0.000000   0.233283  -0.171164
   55  O  4 XX    0.008055  -0.012811  -0.013916  -0.000000   0.000000
   56  O  4 YY    0.006438   0.007823   0.009082  -0.000000   0.000000
   57  O  4 ZZ   -0.005038   0.000456  -0.002236  -0.000000   0.000000
   58  O  4 XY    0.017029   0.004087   0.006761  -0.000000   0.000000
   59  O  4 XZ    0.000000   0.000000  -0.000000   0.025265  -0.011086
   60  O  4 YZ    0.000000   0.000000  -0.000000   0.015235  -0.004941
   61  H  5  S   -0.147141   0.171043  -0.060199  -0.000000   0.000000
   62  H  5  S   -0.118904   0.119523  -0.052123  -0.000000   0.000000
   63  H  6  S   -0.020492  -0.217864   0.031452  -0.000000   0.000000
   64  H  6  S   -0.027330  -0.156615   0.044163  -0.000000   0.000000
   65  H  7  S   -0.124066  -0.170312   0.072459  -0.000000   0.000000
   66  H  7  S   -0.095539  -0.112954   0.086840  -0.000000   0.000000
   67  H  8  S   -0.132330   0.027487   0.205153  -0.000000   0.000000
   68  H  8  S   -0.104787   0.013120   0.233690  -0.000000   0.000000

                     16         17         18         19         20
                   -0.0542     0.2113     0.2507     0.2595     0.3224
                     A''        A''        A'         A'         A'  
    1  C  1  S   -0.000000   0.000000   0.055532  -0.102181  -0.051126
    2  C  1  S   -0.000000   0.000000  -0.059233   0.108381   0.064394
    3  C  1  X   -0.000000   0.000000  -0.022922   0.171985   0.034431
    4  C  1  Y   -0.000000   0.000000  -0.192536  -0.048829  -0.067002
    5  C  1  Z    0.333870  -0.296483  -0.000000   0.000000   0.000000
    6  C  1  S   -0.000000   0.000000  -1.082358   1.703681   0.856342
    7  C  1  X   -0.000000   0.000000  -0.160449   0.620077   0.039969
    8  C  1  Y   -0.000000   0.000000  -0.652486  -0.118219  -0.272393
    9  C  1  Z    0.385859  -0.395433  -0.000000   0.000000   0.000000
   10  C  1 XX   -0.000000   0.000000  -0.013210  -0.007308  -0.015620
   11  C  1 YY   -0.000000   0.000000   0.018624  -0.000635   0.009381
   12  C  1 ZZ   -0.000000   0.000000   0.000871  -0.004983   0.001541
   13  C  1 XY   -0.000000   0.000000   0.007913   0.005816   0.010823
   14  C  1 XZ    0.003606  -0.021217  -0.000000   0.000000   0.000000
   15  C  1 YZ    0.004145  -0.010888  -0.000000   0.000000   0.000000
   16  C  2  S   -0.000000   0.000000   0.058746   0.039073  -0.009953
   17  C  2  S   -0.000000   0.000000  -0.052072  -0.061964   0.011867
   18  C  2  X   -0.000000   0.000000   0.186435   0.048523  -0.027986
   19  C  2  Y   -0.000000   0.000000  -0.130049  -0.044746  -0.139037
   20  C  2  Z   -0.164572   0.450945  -0.000000   0.000000   0.000000
   21  C  2  S   -0.000000   0.000000  -1.206440  -0.352544   0.115666
   22  C  2  X   -0.000000   0.000000   0.726119   0.033216   0.013249
   23  C  2  Y   -0.000000   0.000000  -0.155673  -0.290548  -0.821045
   24  C  2  Z   -0.218795   0.615848  -0.000000   0.000000   0.000000
   25  C  2 XX   -0.000000   0.000000   0.013963   0.010341   0.020882
   26  C  2 YY   -0.000000   0.000000  -0.008654  -0.008925  -0.021774
   27  C  2 ZZ   -0.000000   0.000000   0.002903   0.000996   0.000713
   28  C  2 XY   -0.000000   0.000000  -0.017498  -0.006790   0.008883
   29  C  2 XZ    0.016063  -0.009826  -0.000000   0.000000   0.000000
   30  C  2 YZ    0.025524   0.006522  -0.000000   0.000000   0.000000
   31  C  3  S   -0.000000   0.000000   0.005261  -0.037350   0.109921
   32  C  3  S   -0.000000   0.000000  -0.023829   0.035788  -0.107393
   33  C  3  X   -0.000000   0.000000   0.027236   0.114001  -0.216101
   34  C  3  Y   -0.000000   0.000000  -0.009109  -0.097215   0.052141
   35  C  3  Z   -0.296573  -0.505359  -0.000000   0.000000   0.000000
   36  C  3  S   -0.000000   0.000000   0.115035   0.531259  -1.826078
   37  C  3  X   -0.000000   0.000000  -0.032559   0.313391  -1.123018
   38  C  3  Y   -0.000000   0.000000   0.202154  -0.425867  -0.127100
   39  C  3  Z   -0.370098  -0.428764  -0.000000   0.000000   0.000000
   40  C  3 XX   -0.000000   0.000000   0.008870  -0.001520   0.011722
   41  C  3 YY   -0.000000   0.000000  -0.000875  -0.001871   0.007438
   42  C  3 ZZ   -0.000000   0.000000  -0.006198  -0.001812  -0.001797
   43  C  3 XY   -0.000000   0.000000   0.020219  -0.001812   0.001793
   44  C  3 XZ   -0.015468  -0.014338  -0.000000   0.000000   0.000000
   45  C  3 YZ   -0.020306   0.016998  -0.000000   0.000000   0.000000
   46  O  4  S   -0.000000   0.000000  -0.009053   0.008650   0.009709
   47  O  4  S   -0.000000   0.000000   0.025146  -0.020648   0.021139
   48  O  4  X   -0.000000   0.000000   0.053185  -0.040039   0.070347
   49  O  4  Y   -0.000000   0.000000   0.015122   0.016221  -0.021541
   50  O  4  Z    0.465541   0.150390  -0.000000   0.000000   0.000000
   51  O  4  S   -0.000000   0.000000   0.055919  -0.093875  -0.355731
   52  O  4  X   -0.000000   0.000000   0.059392  -0.123301   0.030575
   53  O  4  Y   -0.000000   0.000000   0.002101   0.084127  -0.126385
   54  O  4  Z    0.346522   0.281176  -0.000000   0.000000   0.000000
   55  O  4 XX   -0.000000   0.000000   0.002032  -0.002671   0.002862
   56  O  4 YY   -0.000000   0.000000  -0.002664  -0.000128   0.019501
   57  O  4 ZZ   -0.000000   0.000000   0.000206   0.000939   0.009076
   58  O  4 XY   -0.000000   0.000000  -0.004300  -0.003005  -0.009191
   59  O  4 XZ    0.003911  -0.009988  -0.000000   0.000000   0.000000
   60  O  4 YZ    0.000625  -0.001189  -0.000000   0.000000   0.000000
   61  H  5  S   -0.000000   0.000000   0.044294  -0.014989   0.043172
   62  H  5  S   -0.000000   0.000000   1.409264  -0.675421   0.058346
   63  H  6  S   -0.000000   0.000000  -0.017655  -0.037529  -0.067371
   64  H  6  S   -0.000000   0.000000   0.017157  -1.585480  -0.812759
   65  H  7  S   -0.000000   0.000000   0.049637   0.051878   0.002111
   66  H  7  S   -0.000000   0.000000   1.513781   0.667488   0.324256
   67  H  8  S   -0.000000   0.000000  -0.031200   0.012103   0.031888
   68  H  8  S   -0.000000   0.000000  -0.083986  -0.838531   1.883355

                     21         22         23         24         25
                    0.3312     0.4287     0.4817     0.5435     0.7142
                     A'         A'         A'         A'         A'  
    1  C  1  S   -0.035408  -0.030503   0.075056   0.004160   0.000023
    2  C  1  S    0.045034  -0.065578   0.028878   0.000393  -0.415611
    3  C  1  X   -0.109772   0.112274   0.020390   0.194552   0.522532
    4  C  1  Y    0.233797   0.119883   0.068264  -0.075988   0.137990
    5  C  1  Z   -0.000000   0.000000  -0.000000   0.000000  -0.000000
    6  C  1  S    0.293890   1.634622  -2.813194  -1.764220  -0.391350
    7  C  1  X   -0.701703  -0.492643   2.336035   1.802286  -0.570528
    8  C  1  Y    1.448485  -0.532396   1.696764  -0.269581   0.224310
    9  C  1  Z   -0.000000   0.000000  -0.000000   0.000000  -0.000000
   10  C  1 XX   -0.004297  -0.020147  -0.003278   0.014630  -0.063464
   11  C  1 YY   -0.000924   0.028083  -0.011395  -0.039789  -0.017127
   12  C  1 ZZ   -0.000450  -0.009620   0.009803   0.004353  -0.002512
   13  C  1 XY   -0.009399   0.005913   0.035719  -0.037786  -0.019569
   14  C  1 XZ   -0.000000   0.000000  -0.000000   0.000000  -0.000000
   15  C  1 YZ   -0.000000   0.000000  -0.000000   0.000000  -0.000000
   16  C  2  S    0.073889   0.027661  -0.102766   0.044720  -0.081546
   17  C  2  S   -0.105627   0.062982   0.105460  -0.116609  -0.246722
   18  C  2  X    0.105313  -0.112483   0.237183   0.003703  -0.228191
   19  C  2  Y   -0.079354  -0.059867  -0.033250   0.155083  -0.467967
   20  C  2  Z   -0.000000   0.000000  -0.000000   0.000000  -0.000000
   21  C  2  S   -1.230119  -1.810222   3.650821  -0.227310   1.304844
   22  C  2  X    1.005508  -1.209380   2.404955   1.877256   1.024494
   23  C  2  Y   -0.836122   0.659653  -0.049659   2.971706   0.142802
   24  C  2  Z   -0.000000   0.000000  -0.000000   0.000000  -0.000000
   25  C  2 XX   -0.013301  -0.000047   0.022248  -0.033276  -0.094498
   26  C  2 YY    0.018516   0.012940   0.007618   0.029289  -0.051046
   27  C  2 ZZ   -0.001326   0.005218  -0.003046  -0.005745   0.047090
   28  C  2 XY    0.021048  -0.032950  -0.005554   0.016368  -0.055178
   29  C  2 XZ   -0.000000   0.000000  -0.000000   0.000000  -0.000000
   30  C  2 YZ   -0.000000   0.000000  -0.000000   0.000000  -0.000000
   31  C  3  S   -0.016124   0.030144   0.061002  -0.071807   0.052230
   32  C  3  S    0.048470   0.024381   0.031474   0.009494  -0.256046
   33  C  3  X   -0.033786   0.052442   0.055258  -0.162908  -0.025312
   34  C  3  Y    0.136000   0.116366  -0.041768   0.353410  -0.130456
   35  C  3  Z   -0.000000   0.000000  -0.000000   0.000000  -0.000000
   36  C  3  S   -0.178034  -1.039324  -1.501813   2.681497   0.246636
   37  C  3  X   -0.536370   1.951470  -0.241389  -1.414368  -0.447103
   38  C  3  Y    0.134858   1.651574  -0.353381   1.878601  -0.945581
   39  C  3  Z   -0.000000   0.000000  -0.000000   0.000000  -0.000000
   40  C  3 XX    0.001318  -0.005625   0.008355   0.013119  -0.021073
   41  C  3 YY   -0.005872   0.005786   0.005485  -0.008996   0.037929
   42  C  3 ZZ    0.005498  -0.008972  -0.003660   0.011049  -0.027270
   43  C  3 XY    0.001543  -0.006160   0.012483   0.013713   0.060175
   44  C  3 XZ   -0.000000   0.000000  -0.000000   0.000000  -0.000000
   45  C  3 YZ   -0.000000   0.000000  -0.000000   0.000000  -0.000000
   46  O  4  S    0.012044  -0.101982  -0.031501   0.034801   0.010764
   47  O  4  S   -0.010517   0.053132   0.113693   0.040536   0.081033
   48  O  4  X    0.029480   0.117385   0.047914  -0.005602  -0.005900
   49  O  4  Y   -0.064148   0.004186   0.117951  -0.065216   0.221035
   50  O  4  Z   -0.000000   0.000000  -0.000000   0.000000  -0.000000
   51  O  4  S   -0.263538   2.306623   0.228926  -1.032258  -0.709401
   52  O  4  X   -0.018302   0.868515   0.171130  -0.194767  -0.269818
[...]
   66  H  7  S   -0.002746  -0.010909   0.000000   0.158787   0.000000
   67  H  8  S    0.175446  -0.402975   0.000000   0.179145   0.000000
   68  H  8  S    0.072767   0.080117   0.000000  -0.228093   0.000000

                     61         62         63         64         65
                    2.9594     3.2206     3.2964     3.3774     4.2503
                     A'         A'         A'         A'         A'  
    1  C  1  S    0.066626  -0.014915   0.026587  -0.003705  -0.016757
    2  C  1  S   -0.194877   0.049998  -0.088816   0.173627   0.262272
    3  C  1  X    0.529285  -0.196759   0.305528  -0.318846   0.043603
    4  C  1  Y    0.280594   0.016156   0.151110  -0.141852  -0.032992
    5  C  1  Z   -0.000000   0.000000  -0.000000  -0.000000  -0.000000
    6  C  1  S   -2.153917   0.470908  -1.114590   0.480992   0.153360
    7  C  1  X    1.032524   0.025154   0.519829  -0.315820   0.011181
    8  C  1  Y    0.419536  -0.568707   0.359904   0.079551   0.397890
    9  C  1  Z   -0.000000   0.000000  -0.000000  -0.000000  -0.000000
   10  C  1 XX   -0.390712   0.598774  -0.216685   0.387745  -0.201888
   11  C  1 YY   -0.095430  -0.490441   0.003334  -0.214107  -0.110079
   12  C  1 ZZ    0.557235  -0.113011   0.178913  -0.056913  -0.050744
   13  C  1 XY   -0.811233  -0.307447  -0.353350   0.153416  -0.043956
   14  C  1 XZ   -0.000000   0.000000  -0.000000  -0.000000  -0.000000
   15  C  1 YZ   -0.000000   0.000000  -0.000000  -0.000000  -0.000000
   16  C  2  S   -0.080470   0.071085  -0.016308   0.004327   0.053190
   17  C  2  S    0.193992  -0.123395  -0.047140  -0.116680  -0.421112
   18  C  2  X    0.536500  -0.058167   0.205382  -0.200404   0.065353
   19  C  2  Y    0.086451   0.141568   0.286289  -0.242700   0.016468
   20  C  2  Z   -0.000000   0.000000  -0.000000  -0.000000  -0.000000
   21  C  2  S    2.449355  -1.684598   1.152945  -0.239430   0.471465
   22  C  2  X    1.175362  -0.185644   0.617488  -0.382197  -0.482182
   23  C  2  Y    0.197973   0.883763   0.239510  -0.531552  -0.285246
   24  C  2  Z   -0.000000   0.000000  -0.000000  -0.000000  -0.000000
   25  C  2 XX    0.763380   0.499689   0.525403  -0.304799   0.265199
   26  C  2 YY   -0.071582  -0.673423  -0.433217   0.312451   0.202959
   27  C  2 ZZ   -0.661875   0.360605  -0.110911   0.050479   0.244034
   28  C  2 XY    0.253999  -0.743011   0.311694  -0.599478   0.077986
   29  C  2 XZ   -0.000000   0.000000  -0.000000  -0.000000  -0.000000
   30  C  2 YZ   -0.000000   0.000000  -0.000000  -0.000000  -0.000000
   31  C  3  S    0.043105  -0.020903  -0.058680   0.013686   0.085251
   32  C  3  S    0.122233   0.421692  -0.767716  -1.023081  -0.849230
   33  C  3  X   -0.107213  -0.262401   0.865340   0.755202  -0.057569
   34  C  3  Y   -0.032992   0.156920   0.519371   0.417827  -0.004563
   35  C  3  Z   -0.000000   0.000000  -0.000000  -0.000000  -0.000000
   36  C  3  S   -0.674810   1.840306  -0.934855  -1.573011  -2.812524
   37  C  3  X   -0.346479  -0.373250   0.727756   0.564178   1.907849
   38  C  3  Y   -0.188036   0.623644   0.113203   0.229539   0.357021
   39  C  3  Z   -0.000000   0.000000  -0.000000  -0.000000  -0.000000
   40  C  3 XX    0.325501  -0.346935  -0.881309  -0.008078   0.433878
   41  C  3 YY   -0.373457   0.672376   0.546238  -0.234549   0.428001
   42  C  3 ZZ    0.249468  -0.305074   0.133452   0.443274   0.506934
   43  C  3 XY   -0.303172  -0.124247   0.113266  -0.979143   0.065824
   44  C  3 XZ   -0.000000   0.000000  -0.000000  -0.000000  -0.000000
   45  C  3 YZ   -0.000000   0.000000  -0.000000  -0.000000  -0.000000
   46  O  4  S   -0.000349   0.017902  -0.020556  -0.022174  -0.532243
   47  O  4  S    0.104377   0.491784  -0.610648  -0.344389  -0.364089
   48  O  4  X    0.068543   0.094089   0.149460   0.333572  -0.255240
   49  O  4  Y   -0.002817   0.106355   0.108644   0.146343  -0.150281
   50  O  4  Z   -0.000000   0.000000  -0.000000  -0.000000  -0.000000
   51  O  4  S   -0.197671  -1.314919   2.170713   1.928563   6.449211
   52  O  4  X   -0.066113  -0.580149   0.995903   1.114316   1.196145
   53  O  4  Y   -0.145792  -0.434355   0.891910   0.368009   0.806898
   54  O  4  Z   -0.000000   0.000000  -0.000000  -0.000000  -0.000000
   55  O  4 XX    0.197824  -0.301493   0.337766   1.042356  -1.652551
   56  O  4 YY   -0.222971   0.120144   0.311284  -0.406449  -1.725859
   57  O  4 ZZ    0.032449   0.288522  -0.439109  -0.350660  -1.814428
   58  O  4 XY   -0.327558  -0.182979   1.005776   0.482879   0.187086
   59  O  4 XZ   -0.000000   0.000000  -0.000000  -0.000000  -0.000000
   60  O  4 YZ   -0.000000   0.000000  -0.000000  -0.000000  -0.000000
   61  H  5  S    0.221194   0.308098   0.040735   0.069417  -0.030756
   62  H  5  S   -0.051531   0.053235  -0.097254  -0.082384  -0.220398
   63  H  6  S   -0.121931  -0.319480  -0.023688   0.020488   0.091531
   64  H  6  S    0.002730  -0.107136   0.017225   0.052552  -0.008956
   65  H  7  S   -0.211968  -0.325730  -0.017095  -0.154101  -0.053667
   66  H  7  S    0.226800   0.052916   0.080451   0.112391  -0.135470
   67  H  8  S   -0.083171  -0.034987   0.217710  -0.203647  -0.045422
   68  H  8  S    0.261255   0.073183  -0.234561   0.164752  -0.214199

                     66         67         68
                    4.4781     4.5927     4.8072
                     A'         A'         A'  
    1  C  1  S   -0.283547   0.349242   0.139793
    2  C  1  S    2.042175  -2.047756  -0.890277
    3  C  1  X   -0.091464  -0.202187  -0.235825
    4  C  1  Y   -0.062521  -0.141733  -0.080455
    5  C  1  Z    0.000000  -0.000000   0.000000
    6  C  1  S    0.558155  -1.675362  -1.089282
    7  C  1  X    0.123195   0.071672   0.148318
    8  C  1  Y    0.304366   0.373770  -0.030944
    9  C  1  Z    0.000000  -0.000000   0.000000
   10  C  1 XX   -1.096035   1.502056   0.840990
   11  C  1 YY   -1.161738   1.338596   0.605656
   12  C  1 ZZ   -1.103768   1.327949   0.483059
   13  C  1 XY    0.015876   0.125192   0.120914
   14  C  1 XZ    0.000000  -0.000000   0.000000
   15  C  1 YZ    0.000000  -0.000000   0.000000
   16  C  2  S   -0.318944  -0.146713  -0.319024
   17  C  2  S    2.058018   0.743305   1.974518
   18  C  2  X    0.068961  -0.243977  -0.202123
   19  C  2  Y    0.023051  -0.199984   0.099640
   20  C  2  Z    0.000000  -0.000000   0.000000
   21  C  2  S    1.148554   1.104712   1.895702
   22  C  2  X    0.026862  -0.009001   0.260766
   23  C  2  Y   -0.222913  -0.046753  -0.096074
   24  C  2  Z    0.000000  -0.000000   0.000000
   25  C  2 XX   -1.196150  -0.792565  -1.418175
   26  C  2 YY   -1.160281  -0.404889  -1.599044
   27  C  2 ZZ   -1.236509  -0.522104  -1.180855
   28  C  2 XY    0.004910  -0.127685  -0.161674
   29  C  2 XZ    0.000000  -0.000000   0.000000
   30  C  2 YZ    0.000000  -0.000000   0.000000
   31  C  3  S   -0.176005  -0.295181   0.321837
   32  C  3  S    1.112840   1.670982  -1.912213
   33  C  3  X    0.111358   0.154741  -0.195702
   34  C  3  Y    0.131247   0.091930   0.053267
   35  C  3  Z    0.000000  -0.000000   0.000000
   36  C  3  S   -0.514589  -0.335458  -0.906078
   37  C  3  X    0.353375   0.981806  -0.588205
   38  C  3  Y   -0.034693   0.164486  -0.378277
   39  C  3  Z    0.000000  -0.000000   0.000000
   40  C  3 XX   -0.800127  -1.246631   1.374044
   41  C  3 YY   -0.559960  -1.101856   1.590293
   42  C  3 ZZ   -0.622886  -1.028169   1.109682
   43  C  3 XY   -0.100233  -0.149137   0.191146
   44  C  3 XZ    0.000000  -0.000000   0.000000
   45  C  3 YZ    0.000000  -0.000000   0.000000
   46  O  4  S   -0.079402  -0.146317   0.046257
   47  O  4  S   -0.024319  -0.142237   0.073656
   48  O  4  X    0.072380   0.097185  -0.155700
   49  O  4  Y    0.043952   0.048795  -0.075012
   50  O  4  Z    0.000000  -0.000000   0.000000
   51  O  4  S    1.126524   2.261459  -0.976691
   52  O  4  X    0.336954   0.635818  -0.450699
   53  O  4  Y    0.200720   0.397297  -0.210221
   54  O  4  Z    0.000000  -0.000000   0.000000
   55  O  4 XX   -0.126146  -0.246832  -0.130168
   56  O  4 YY   -0.254717  -0.450587   0.115281
   57  O  4 ZZ   -0.277912  -0.529105   0.237769
   58  O  4 XY    0.110662   0.180707  -0.142557
   59  O  4 XZ    0.000000  -0.000000   0.000000
   60  O  4 YZ    0.000000  -0.000000   0.000000
   61  H  5  S    0.106791  -0.131806  -0.030604
   62  H  5  S   -0.353897   0.171842   0.215971
   63  H  6  S    0.151010  -0.043464  -0.074115
   64  H  6  S   -0.188326   0.399781   0.144730
   65  H  7  S    0.124859   0.030146   0.094718
   66  H  7  S   -0.216142  -0.185449  -0.244870
   67  H  8  S    0.078359   0.064279  -0.064639
   68  H  8  S   -0.141182  -0.409395   0.348925
 .....DONE WITH MCSCF ITERATIONS.....
 STEP CPU TIME =     1.55 TOTAL CPU TIME =          1.9 (      0.0 MIN)
 TOTAL WALL CLOCK TIME=          2.2 SECONDS, CPU UTILIZATION IS    87.61%

     ----------------------------------------------------------------
     PROPERTY VALUES FOR THE MCSCF SELF-CONSISTENT FIELD WAVEFUNCTION
     ----------------------------------------------------------------

          -----------------
          ENERGY COMPONENTS
          -----------------

         WAVEFUNCTION NORMALIZATION =       1.0000000000

                ONE ELECTRON ENERGY =    -461.8190656378
                TWO ELECTRON ENERGY =     168.5983077843
           NUCLEAR REPULSION ENERGY =     102.6894631254
                                      ------------------
                       TOTAL ENERGY =    -190.5312947281

 ELECTRON-ELECTRON POTENTIAL ENERGY =     168.5983077843
  NUCLEUS-ELECTRON POTENTIAL ENERGY =    -652.7114497175
   NUCLEUS-NUCLEUS POTENTIAL ENERGY =     102.6894631254
                                      ------------------
             TOTAL POTENTIAL ENERGY =    -381.4236788078
               TOTAL KINETIC ENERGY =     190.8923840797
                 VIRIAL RATIO (V/T) =       1.9981084141

          ---------------------------------------
          MULLIKEN AND LOWDIN POPULATION ANALYSES
          ---------------------------------------

     ATOMIC MULLIKEN POPULATION IN EACH MOLECULAR ORBITAL

                      1          2          3          4          5

                  2.000000   2.000000   2.000000   2.000000   2.000000

    1            -0.000000   0.001793   0.000310   1.997503   0.000100
    2             0.000001   1.996759   0.000786   0.001467   0.031911
    3            -0.000317   0.001144   1.999900   0.000292   0.385726
    4             2.000320  -0.000007  -0.001394   0.000002   1.584230
    5            -0.000000   0.000005  -0.000001   0.000368  -0.000134
    6             0.000000  -0.000010  -0.000000   0.000378   0.000166
    7            -0.000000   0.000320   0.000006  -0.000007  -0.000029
    8            -0.000004  -0.000005   0.000392  -0.000002  -0.001971

                      6          7          8          9         10

                  2.000000   2.000000   2.000000   2.000000   2.000000

    1             0.772094   0.522639   0.247036   0.391249   0.372805
    2             0.880462   0.440236   0.471608   0.281718   0.323136
    3             0.184084   0.510107   0.405202   0.216924   0.410503
    4             0.032365   0.238287   0.311622   0.793818   0.605053
    5             0.040903   0.127862   0.015066   0.201333   0.002005
    6             0.039650   0.080295   0.127383   0.002134   0.178660
    7             0.044442   0.029035   0.236893   0.082453   0.010854
    8             0.006000   0.051539   0.185188   0.030370   0.096984

                     11         12         13         14         15

                  2.000000   2.000000   2.000000   1.715539   1.115018

    1             0.411874   0.674725   0.035932   0.112946   0.768505
    2             0.348211   0.248293   0.307622   0.326231   0.208165
    3             0.293877   0.085648   0.279548   1.047388  -0.018506
    4             0.482596   0.244599   0.945782   0.228975   0.156854
    5             0.179496   0.205047   0.024480   0.000000   0.000000
    6             0.007649   0.342411   0.011511   0.000000   0.000000
    7             0.122125   0.195352   0.045647   0.000000   0.000000
    8             0.154174   0.003926   0.349478   0.000000   0.000000

                     16         17

                  0.932286   0.237158

    1             0.051034   0.044548
    2             0.097090   0.120300
    3             0.104467   0.075675
    4             0.679695  -0.003365
    5             0.000000   0.000000
    6             0.000000   0.000000
    7             0.000000   0.000000
    8             0.000000   0.000000
 WARNING! MCSCF POPULATIONS SHOWN ABOVE ARE FOR THE NATURAL ORBITALS.
 IGNORE THE ABOVE DATA FOR MCSCF FUNCTIONS WHICH ARE NOT OF -FORS- TYPE.
 THE FOLLOWING POPULATIONS ARE CORRECT FOR ANY MCSCF WAVEFUNCTION.

               ----- POPULATIONS IN EACH AO -----
                             MULLIKEN      LOWDIN
              1  C  1  S      1.99635     1.98115
              2  C  1  S      0.66003     0.36025
              3  C  1  X      0.74024     0.66132
              4  C  1  Y      0.72402     0.64854
              5  C  1  Z      0.54195     0.53205
              6  C  1  S      0.62678     0.33716
              7  C  1  X      0.23993     0.38850
              8  C  1  Y      0.38231     0.45585
              9  C  1  Z      0.43045     0.43311
             10  C  1 XX      0.02948     0.18729
             11  C  1 YY      0.03401     0.18073
             12  C  1 ZZ     -0.01935     0.10354
             13  C  1 XY      0.01427     0.02541
             14  C  1 XZ      0.00365     0.00849
             15  C  1 YZ      0.00098     0.00222
             16  C  2  S      1.99673     1.98042
             17  C  2  S      0.69903     0.37070
             18  C  2  X      0.77149     0.68091
             19  C  2  Y      0.76385     0.68233
             20  C  2  Z      0.39463     0.37058
             21  C  2  S      0.53200     0.31158
             22  C  2  X      0.23791     0.37724
             23  C  2  Y      0.28127     0.37611
             24  C  2  Z      0.34153     0.34349
             25  C  2 XX      0.03119     0.18922
             26  C  2 YY      0.02193     0.17471
             27  C  2 ZZ     -0.01998     0.10805
             28  C  2 XY      0.01679     0.02996
             29  C  2 XZ      0.00627     0.01449
             30  C  2 YZ      0.00935     0.01913
             31  C  3  S      1.99630     1.97430
             32  C  3  S      0.63813     0.33908
             33  C  3  X      0.66889     0.60127
             34  C  3  Y      0.65703     0.58195
             35  C  3  Z      0.67802     0.63915
             36  C  3  S      0.44476     0.30721
             37  C  3  X      0.13674     0.32476
             38  C  3  Y      0.14461     0.33132
             39  C  3  Z      0.51937     0.52387
             40  C  3 XX      0.04642     0.21193
             41  C  3 YY      0.02728     0.18791
             42  C  3 ZZ     -0.01930     0.09507
             43  C  3 XY      0.03178     0.06454
             44  C  3 XZ      0.00749     0.02079
             45  C  3 YZ      0.00415     0.00985
             46  O  4  S      1.99554     1.97792
             47  O  4  S      0.93417     0.72849
             48  O  4  X      1.00691     0.94291
             49  O  4  Y      1.12442     1.08314
             50  O  4  Z      0.68761     0.66547
             51  O  4  S      0.95525     0.46479
             52  O  4  X      0.51545     0.58361
             53  O  4  Y      0.67096     0.68141
             54  O  4  Z      0.36594     0.39166
             55  O  4 XX      0.01608     0.18845
             56  O  4 YY      0.00911     0.17755
             57  O  4 ZZ      0.00075     0.16883
             58  O  4 XY      0.00864     0.01494
             59  O  4 XZ      0.00631     0.01936
             60  O  4 YZ      0.00229     0.00630
             61  H  5  S      0.51390     0.47708
             62  H  5  S      0.28253     0.35061
             63  H  6  S      0.51224     0.47329
             64  H  6  S      0.27799     0.35023
             65  H  7  S      0.51576     0.47894
             66  H  7  S      0.25133     0.33934
             67  H  8  S      0.51946     0.49090
             68  H  8  S      0.35661     0.39726

          ----- MULLIKEN ATOMIC OVERLAP POPULATIONS -----
          (OFF-DIAGONAL ELEMENTS NEED TO BE MULTIPLIED BY 2)

             1           2           3           4           5

    1    5.4853576
    2    0.2142188   5.2739329
    3   -0.0716702   0.4533699   5.0214030
    4    0.0031220  -0.0430863   0.1815509   8.2025129
    5    0.3958949  -0.0376689   0.0018235  -0.0000485   0.4582280
    6    0.4010146  -0.0490891  -0.0010143   0.0000534  -0.0197116
    7   -0.0336663   0.3710430  -0.0198941   0.0025344  -0.0019793
    8    0.0108211  -0.0987255   0.4160935  -0.0472076  -0.0001083

             6           7           8

    6    0.4524934
    7    0.0024029   0.4437590
    8    0.0040777   0.0028927   0.5882267

          TOTAL MULLIKEN AND LOWDIN ATOMIC POPULATIONS
       ATOM         MULL.POP.    CHARGE          LOW.POP.     CHARGE
    1 C             6.405093   -0.405093         6.305612   -0.305612
    2 C             6.083995   -0.083995         6.028918   -0.028918
    3 C             5.981662    0.018338         6.213005   -0.213005
    4 O             8.299431   -0.299431         8.094811   -0.094811
    5 H             0.796430    0.203570         0.827693    0.172307
    6 H             0.790227    0.209773         0.823525    0.176475
    7 H             0.767092    0.232908         0.818273    0.181727
    8 H             0.876070    0.123930         0.888163    0.111837

          ---------------------
          ELECTROSTATIC MOMENTS
          ---------------------

 POINT   1           X           Y           Z (BOHR)    CHARGE
                -0.111994   -0.102023    0.000000        0.00 (A.U.)
         DX          DY          DZ         /D/  (DEBYE)
     1.503961    2.453351    0.000000    2.877644
 ...... END OF PROPERTY EVALUATION ......
 STEP CPU TIME =     0.01 TOTAL CPU TIME =          1.9 (      0.0 MIN)
 TOTAL WALL CLOCK TIME=          2.2 SECONDS, CPU UTILIZATION IS    87.65%
               733303  WORDS OF DYNAMIC MEMORY USED
 EXECUTION OF GAMESS TERMINATED NORMALLY 14:26:56 30-APR-2024    
 DDI: 263640 bytes (0.3 MB / 0 MWords) used by master data server.

 ----------------------------------------
 CPU timing information for all processes
 ========================================
 0: 1.767 + 0.160 = 1.928
 ----------------------------------------
 ddikick.x: exited gracefully.
----- accounting info -----
Files used on the master node pahry were:
-rw-r--r-- 1 humbel users    19758 Apr 30 14:26 /scratch/humbel.257302/acro_cas_cs_csf_NSTATE2.F05
-rw-r--r-- 1 humbel users 16381456 Apr 30 14:26 /scratch/humbel.257302/acro_cas_cs_csf_NSTATE2.F08
-rw-r--r-- 1 humbel users   198792 Apr 30 14:26 /scratch/humbel.257302/acro_cas_cs_csf_NSTATE2.F09
-rw-r--r-- 1 humbel users  2159520 Apr 30 14:26 /scratch/humbel.257302/acro_cas_cs_csf_NSTATE2.F10
-rw-r--r-- 1 humbel users   276552 Apr 30 14:26 /scratch/humbel.257302/acro_cas_cs_csf_NSTATE2.F11
-rw-r--r-- 1 humbel users      520 Apr 30 14:26 /scratch/humbel.257302/acro_cas_cs_csf_NSTATE2.F12
-rw-r--r-- 1 humbel users   147920 Apr 30 14:26 /scratch/humbel.257302/acro_cas_cs_csf_NSTATE2.F13
-rw-r--r-- 1 humbel users   400008 Apr 30 14:26 /scratch/humbel.257302/acro_cas_cs_csf_NSTATE2.F14
-rw-r--r-- 1 humbel users   181248 Apr 30 14:26 /scratch/humbel.257302/acro_cas_cs_csf_NSTATE2.F15
-rw-r--r-- 1 humbel users   181248 Apr 30 14:26 /scratch/humbel.257302/acro_cas_cs_csf_NSTATE2.F16
-rw-r--r-- 1 humbel users   353280 Apr 30 14:26 /scratch/humbel.257302/acro_cas_cs_csf_NSTATE2.F23
Tue Apr 30 02:26:59 PM CEST 2024
0.0u 0.0s 0:05.41 2.2% 0+0k 40+288io 0pf+0w
