----- GAMESS execution script 'rungms' -----
This job is running on host muhka
under operating system Linux at Fri Mar 1 04:16:54 PM CET 2024
Available scratch disk space (Kbyte units) at beginning of the job is
Filesystem                        1K-blocks     Used  Available Use% Mounted on
/dev/mapper/vg--ctom-lv--scratch 1057840472 26121692 1031718780   3% /scratch
GAMESS temporary binary files will be written to /scratch/barrois.253741
GAMESS supplementary output files will be written to /home/barrois/Acene/Anthracene/di-antracene/Struc/IC
Copying input file ./Antr_IC26_GG.inp to your run's scratch directory...

 Distributed Data Interface kickoff program.
 Initiating 1 compute processes on 1 nodes to run the following command:
 /home/humbel/fuming/softwares/gamess/2020-R2/gamess.xmvb.x Antr_IC26_GG 

          *******************************************************
          *                                                     *
          *          GAMESS VERSION = 30 SEP 2020 (R2)          *
          *                                                     *
          *              doi.org/10.1063/5.0005188              *
          *                                                     *
          **************** 64 BIT LINUX VERSION *****************

  GAMESS HAS BEEN MADE POSSIBLE WITH IMPORTANT CONTRIBUTIONS FROM
  THE FOLLOWING INDIVIDUALS (IN ALPHABETICAL ORDER):

     IVANA ADAMOVIC, CHRISTINE AIKENS, TOMOKO AKAMA,
     YURI ALEXEEV, YURIKO AOKI, POOJA ARORA, TOSHIO ASADA,
     ANDREY ASADCHEV, KIM K. BALDRIDGE, PRADIPTA BANDYOPADHYAY,
     MARIA BARYSZ, ROB BELL, JONATHAN BENTZ, COLLEEN BERTONI,
     JERRY A. BOATZ, BRETT BODE, KURT BRORSEN, KURT R. BRORSEN,
     LAIMUTIS BYTAUTAS, CALEB CARLIN, LAURA CARRINGTON,
     GALINA CHABAN, BENOIT CHAMPAGNE, WEI CHEN, MAHITO CHIBA,
     DAN CHIPMAN, CHEOL HO CHOI, TANNER CULPITT,
     DIPAYAN DATTA, PAUL DAY, ALBERT DEFUSCO,
     NUWAN DESILVA, J. EMILIANO DEUSTUA,
     TIM DUDLEY, MICHEL DUPUIS, STEVEN T. ELBERT,
     DMITRI FEDOROV, ALEX FINDLATER, GRAHAM FLETCHER,
     MARK FREITAG, CHRISTIAN FRIEDL, DAVID GARMER,
     IGOR S. GERASIMOV, KURT GLAESEMANN, MARK S. GORDON,
     JEFFREY GOUR, FENG LONG GU, EMILIE B. GUIDEZ,
     ANASTASIA GUNINA, SHARON HAMMES-SCHIFFER, MASATAKE HARUTA,
     KIMIHIKO HIRAO, YASUHIRO IKABATA, TZVETELIN IORDANOV,
     STEPHAN IRLE, KAZUYA ISHIMURA, JOE IVANIC, FRANK JENSEN,
     JAN H. JENSEN, VISVALDAS KAIRYS, MUNEAKI KAMIYA,
     MICHIO KATOUDA, NAOAKI KAWAKAMI, DAN KEMP, BERNARD KIRTMAN,
     KAZUO KITAURA, MARIUSZ KLOBUKOWSKI, MASATO KOBAYASHI,
     PRAKASHAN KORAMBATH, JACEK KORCHOWIEC, SHIRO KOSEKI,
     KAROL KOWALSKI, JIMMY KROMANN, STANISLAW KUCHARSKI,
     HENRY KURTZ, SAROM SOK LEANG, HUI LI, SHUHUA LI, WEI LI,
     JESSE LUTZ, ALEKSANDR O. LYKHIN, MARCIN MAKOWSKI,
     JOANI MATO, NIKITA MATSUNAGA, BENEDETTA MENNUCCI,
     GRANT MERRILL, NORIYUKI MINEZAWA, VLADIMIR MIRONOV,
     EISAKU MIYOSHI, JOHN A. MONTGOMERY JR., HIROTOSHI MORI,
     JONATHAN MULLIN, MONIKA MUSIAL, SHIGERU NAGASE,
     TAKESHI NAGATA, HIROMI NAKAI, TAKAHITO NAKAJIMA,
     YUYA NAKAJIMA, HARUYUKI NAKANO, HIROYA NAKATA, SEAN NEDD,
     HEATHER NETZLOFF, KIET A. NGUYEN, YOSHIO NISHIMOTO,
     BOSILJKA NJEGIC, RYAN OLSON, MIKE PAK, ROBERTO PEVERATI,
     BUU PHAM, PIOTR PIECUCH, ANNA POMOGAEVA, DAVID POOLE,
     SPENCER PRUITT, OLIVIER QUINET, LUKE ROSKOP,
     KLAUS RUEDENBERG, ANDREW SAND, TOSAPORN SATTASATHUCHANA,
     NOZOMI SAWADA, MICHAEL W. SCHMIDT, PATRICK E. SCHNEIDER,
     JUNJI SEINO, PRACHI SHARMA, JUN SHEN, JIM SHOEMAKER,
     YINAN SHU, DEJUN SI, JONATHAN SKONE, LYUDMILA SLIPCHENKO,
     TONY SMITH, JIE SONG, MARK SPACKMAN, CASPER STEINMANN,
     WALT STEVENS, PEIFENG SU, SHUJUN SU, CHET SWALINA,
     TETSUYA TAKETSUGU, ZHEN TAO, NANDUN THELLAMUREGE
     SEIKEN TOKURA, JACOPO TOMASI, TSUGUKI TOUMA, TAKAO TSUNEDA,
     HIROAKI UMEDA, JORGE LUIS GALVEZ VALLEJO, YALI WANG,
     SIMON WEBB, AARON WEST, THERESA L. WINDUS, MARTA WLOCH,
     PENG XU, KIYOSHI YAGI, SUSUMU YANAGISAWA, YANG YANG,
     SOOHAENG YOO, TAKESHI YOSHIKAWA, FEDERICO ZAHARIEV,
     TOBY ZENG

  WHO ARE SUPPORTED BY THEIR INSTITUTION/UNIVERSITY/COMPANY/GROUP
  (IN ALPHABETICAL ORDER):

     EP ANALYTICS, FACULTES UNIVERSITAIRES NOTRE-DAME DE LA PAIX,
     INSTITUTE FOR MOLECULAR SCIENCE, IOWA STATE UNIVERSITY,
     JACKSON STATE UNIVERSITY, JOHANNES KEPLER UNIVERSITY LINZ,
     KYUSHU UNIVERSITY, MICHIGAN STATE UNIVERSITY,
     MIE UNIVERSITY, MOSCOW STATE UNIVERSITY,
     N. COPERNICUS UNIVERSITY, NAGOYA UNIVERSITY,
     NANJING UNIVERSITY, NAT. INST. OF ADVANCED INDUSTRIAL
     SCIENCE AND TECHNOLOGY, NATIONAL INST. OF STANDARDS AND
     TECHNOLOGY, NESMEYANOV INSTITUTE OF ORGANOELEMENT COMPOUNDS
     OF RUSSIAN ACADEMY OF SCIENCES, OSAKA PREFECTURE UNIVERSITY,
     PENNSYLVANIA STATE UNIVERSITY, TOKYO INSTITUTE OF TECHNOLOGY,
     UNIVERSITY OF AARHUS, UNIVERSITY OF ALBERTA,
     UNIVERSITY OF CALIFORNIA AT SANTA BARBARA,
     UNIVERSITY OF COPENHAGEN, UNIVERSITY OF IOWA,
     UNIVERSITY OF MEMPHIS, UNIVERSITY OF MINNESOTA,
     UNIVERSITY OF NEBRASKA, UNIVERSITY OF NEW ENGLAND,
     UNIVERSITY OF NOTRE DAME, UNIVERSITY OF PISA,
     UNIVERSITY OF SILESIA, UNIVERSITY OF TOKYO,
     UNIVERSITY OF ZURICH, WASEDA UNIVERSITY, YALE UNIVERSITY

  GAMESS SOFTWARE MANAGEMENT TEAM FOR THIS RELEASE:
     MARK S. GORDON (TEAM LEAD),
     BRETT BODE (SENIOR ADVISOR),
     GIUSEPPE BARCA,
     COLLEEN BERTONI,
     KRISTOPHER KEIPERT (ADVISOR),
     SAROM S. LEANG (DEVELOPMENT LEAD),
     BUU PHAM,
     JORGE LUIS GALVEZ VALLEJO (WEBSITE ADMINISTRATOR),
     PENG XU

 EXECUTION OF GAMESS BEGUN 16:16:54 01-MAR-2024    

            ECHO OF THE FIRST FEW INPUT CARDS -
 INPUT CARD>!   File created by MacMolPlt 7.7.2                                             
 INPUT CARD> $CONTRL SCFTYP=RHF RUNTYP=ENERGY MAXIT=30 MULT=1 $END                          
 INPUT CARD> $CONTRL VBTYP=XMVB   COORD=UNIQUE                 $END                         
 INPUT CARD> $SYSTEM TIMLIM=525600 MEMORY=1000000 $END                                      
 INPUT CARD> $BASIS GBASIS=N31 NGAUSS=6 $END                                                
 INPUT CARD> $GUESS GUESS=MOREAD                                                            
 INPUT CARD> NORB=47                                                                        
 INPUT CARD> $END                                                                           
 INPUT CARD> $SCF DIRSCF=.TRUE. $END                                                        
 INPUT CARD> $DATA                                                                          
 INPUT CARD>anthracene opt C2H gaussian                                                     
 INPUT CARD>C1                                                                              
 INPUT CARD>C  6.0     0.00000    -2.47682     -1.40470                                     
 INPUT CARD>C  6.0    -0.00000    -0.00000      1.40119                                     
 INPUT CARD>C  6.0     0.00000    -2.47682      1.40470                                     
 INPUT CARD>C  6.0     0.00000     0.00000     -1.40119                                     
 INPUT CARD>C  6.0     0.00000    -3.65503     -0.71227                                     
 INPUT CARD>C  6.0    -0.00000     1.22202      0.72155                                     
 INPUT CARD>C  6.0     0.00000    -3.65503      0.71227                                     
 INPUT CARD>C  6.0    -0.00000     1.22202     -0.72155                                     
 INPUT CARD>C  6.0    -0.00000    -1.22202      0.72155                                     
 INPUT CARD>C  6.0     0.00000    -1.22202     -0.72155                                     
 INPUT CARD>C  6.0    -0.00000     3.65503      0.71227                                     
 INPUT CARD>C  6.0     0.00000     3.65503     -0.71227                                     
 INPUT CARD>C  6.0    -0.00000     2.47682      1.40470                                     
 INPUT CARD>C  6.0     0.00000     2.47682     -1.40470                                     
 INPUT CARD>H  1.0     0.00000     2.47711     -2.49085                                     
 INPUT CARD>H  1.0     0.00000    -2.47711      2.49085                                     
 INPUT CARD>H  1.0     0.00000     0.00000     -2.48817                                     
 INPUT CARD>H  1.0    -0.00000    -0.00000      2.48817                                     
 INPUT CARD>H  1.0    -0.00000     2.47711      2.49085                                     
 INPUT CARD>H  1.0     0.00000    -2.47711     -2.49085                                     
 INPUT CARD>H  1.0    -0.00000     4.60051      1.24509                                     
 INPUT CARD>H  1.0     0.00000    -4.60051     -1.24509                                     
 INPUT CARD>H  1.0     0.00000     4.60051     -1.24509                                     
 INPUT CARD>H  1.0     0.00000    -4.60051      1.24509                                     
 INPUT CARD> $END                                                                           
 INPUT CARD>E(RHF)=     -535.8100732703, E(NUC)=  766.3548992199,   10 ITERS                
 INPUT CARD> $VEC                                                                           
 INPUT CARD> 1  1 2.41700628E-02 1.49409961E-04 0.00000000E+00-1.27795417E-04-6.84782055E-05
 INPUT CARD> 1  2 2.14970763E-03 0.00000000E+00 1.51154770E-03 3.79194754E-04 6.27828548E-02
 INPUT CARD> 1  3 5.88975197E-04 0.00000000E+00 0.00000000E+00 1.73959014E-04 5.28785361E-03
 INPUT CARD> 1  4 0.00000000E+00 0.00000000E+00-1.41707988E-03 2.41700628E-02 1.49409961E-04
 INPUT CARD> 1  5 0.00000000E+00-1.27795417E-04 6.84782055E-05 2.14970763E-03 0.00000000E+00
 INPUT CARD> 1  6 1.51154770E-03-3.79194754E-04 6.27828548E-02 5.88975197E-04 0.00000000E+00
 INPUT CARD> 1  7 0.00000000E+00-1.73959014E-04 5.28785361E-03 0.00000000E+00 0.00000000E+00
 INPUT CARD> 1  8 1.41707988E-03 9.55539827E-04-6.38033886E-05 0.00000000E+00-4.77306819E-05
 INPUT CARD> 1  9 1.56875110E-05 3.82322317E-04 0.00000000E+00 9.87380568E-05-2.12873519E-04
 INPUT CARD> 1 10 4.95425692E-01 1.21718506E-02 0.00000000E+00 4.08273308E-05 1.03343284E-04
 INPUT CARD> 1 11-7.67438989E-03 0.00000000E+00 2.18746077E-04-1.41082443E-03 9.55539827E-04
    1000000 WORDS OF MEMORY AVAILABLE

     BASIS OPTIONS
     -------------
     GBASIS=N31          IGAUSS=       6      POLAR=NONE    
     NDFUNC=       0     NFFUNC=       0     DIFFSP=       F
     NPFUNC=       0      DIFFS=       F     BASNAM=        


     RUN TITLE
     ---------
 anthracene opt C2H gaussian                                                     

 THE POINT GROUP OF THE MOLECULE IS C1      
 THE ORDER OF THE PRINCIPAL AXIS IS     0

 ATOM      ATOMIC                      COORDINATES (BOHR)
           CHARGE         X                   Y                   Z
 C           6.0     0.0000000000       -4.6805111209       -2.6544980950
 C           6.0    -0.0000000000       -0.0000000000        2.6478651567
 C           6.0     0.0000000000       -4.6805111209        2.6544980950
 C           6.0     0.0000000000        0.0000000000       -2.6478651567
 C           6.0     0.0000000000       -6.9070051769       -1.3459951293
 C           6.0    -0.0000000000        2.3092829515        1.3635317864
 C           6.0     0.0000000000       -6.9070051769        1.3459951293
 C           6.0    -0.0000000000        2.3092829515       -1.3635317864
 C           6.0    -0.0000000000       -2.3092829515        1.3635317864
 C           6.0     0.0000000000       -2.3092829515       -1.3635317864
 C           6.0    -0.0000000000        6.9070051769        1.3459951293
 C           6.0     0.0000000000        6.9070051769       -1.3459951293
 C           6.0    -0.0000000000        4.6805111209        2.6544980950
 C           6.0     0.0000000000        4.6805111209       -2.6544980950
 H           1.0     0.0000000000        4.6810591414       -4.7070239765
 H           1.0     0.0000000000       -4.6810591414        4.7070239765
 H           1.0     0.0000000000        0.0000000000       -4.7019595109
 H           1.0    -0.0000000000       -0.0000000000        4.7019595109
 H           1.0    -0.0000000000        4.6810591414        4.7070239765
 H           1.0     0.0000000000       -4.6810591414       -4.7070239765
 H           1.0    -0.0000000000        8.6937033038        2.3528789301
 H           1.0     0.0000000000       -8.6937033038       -2.3528789301
 H           1.0     0.0000000000        8.6937033038       -2.3528789301
 H           1.0     0.0000000000       -8.6937033038        2.3528789301

          INTERNUCLEAR DISTANCES (ANGS.)
          ------------------------------

                1 C          2 C          3 C          4 C          5 C     

   1 C       0.0000000    3.7426803    2.8094000 *  2.4768225 *  1.3666156 *
   2 C       3.7426803    0.0000000    2.4768225 *  2.8023800 *  4.2220798  
   3 C       2.8094000 *  2.4768225 *  0.0000000    3.7426803    2.4227548 *
   4 C       2.4768225 *  2.8023800 *  3.7426803    0.0000000    3.7193891  
   5 C       1.3666156 *  4.2220798    2.4227548 *  3.7193891    0.0000000  
   6 C       4.2664220    1.3983002 *  3.7613975    2.4493587 *  5.0834493  
   7 C       2.4227548 *  3.7193891    1.3666156 *  4.2220798    1.4245400 *
   8 C       3.7613975    2.4493587 *  4.2664220    1.3983002 *  4.8770588  
   9 C       2.4688990 *  1.3983002 *  1.4287116 *  2.4493587 *  2.8240711 *
  10 C       1.4287116 *  2.4493587 *  2.4688990 *  1.3983002 *  2.4330277 *
  11 C       6.4869983    3.7193891    6.1708220    4.2220798    7.4475695  
  12 C       6.1708220    4.2220798    6.4869983    3.7193891    7.3100600  
  13 C       5.6948466    2.4768225 *  4.9536400    3.7426803    6.4869983  
  14 C       4.9536400    3.7426803    5.6948466    2.4768225 *  6.1708220  
  15 H       5.0716017    4.6134639    6.3021212    2.7061842 *  6.3848640  
  16 H       3.8955500    2.7061842 *  1.0861500 *  4.6134639    3.4128395  
  17 H       2.7034320 *  3.8893600    4.6140085    1.0869800 *  4.0636271  
  18 H       4.6140085    1.0869800 *  2.7034320 *  3.8893600    4.8581952  
  19 H       6.3021212    2.7061842 *  5.0716017    4.6134639    6.9183176  
  20 H       1.0861500 *  4.6134639    3.8955500    2.7061842 *  2.1332703 *
  21 H       7.5571150    4.6031576    7.0791296    5.3073054    8.4844092  
  22 H       2.1296795 *  5.3073054    3.3957983    4.6031576    1.0852786 *
  23 H       7.0791296    5.3073054    7.5571150    4.6031576    8.2727165  
  24 H       3.3957983    4.6031576    2.1296795 *  5.3073054    2.1737504 *

                6 C          7 C          8 C          9 C         10 C     

   1 C       4.2664220    2.4227548 *  3.7613975    2.4688990 *  1.4287116 *
   2 C       1.3983002 *  3.7193891    2.4493587 *  1.3983002 *  2.4493587 *
   3 C       3.7613975    1.3666156 *  4.2664220    1.4287116 *  2.4688990 *
   4 C       2.4493587 *  4.2220798    1.3983002 *  2.4493587 *  1.3983002 *
   5 C       5.0834493    1.4245400 *  4.8770588    2.8240711 *  2.4330277 *
   6 C       0.0000000    4.8770588    1.4431000 *  2.4440400 *  2.8382863 *
   7 C       4.8770588    0.0000000    5.0834493    2.4330277 *  2.8240711 *
   8 C       1.4431000 *  5.0834493    0.0000000    2.8382863 *  2.4440400 *
   9 C       2.4440400 *  2.4330277 *  2.8382863 *  0.0000000    1.4431000 *
  10 C       2.8382863 *  2.8240711 *  2.4440400 *  1.4431000 *  0.0000000  
  11 C       2.4330277 *  7.3100600    2.8240711 *  4.8770588    5.0834493  
  12 C       2.8240711 *  7.4475695    2.4330277 *  5.0834493    4.8770588  
  13 C       1.4287116 *  6.1708220    2.4688990 *  3.7613975    4.2664220  
  14 C       2.4688990 *  6.4869983    1.4287116 *  4.2664220    3.7613975  
  15 H       3.4488788    6.9183176    2.1692564 *  4.8992935    4.1004860  
  16 H       4.1004860    2.1332703 *  4.8992935    2.1692564 *  3.4488788  
  17 H       3.4344775    4.8581952    2.1480873 *  3.4344775    2.1480873 *
  18 H       2.1480873 *  4.0636271    3.4344775    2.1480873 *  3.4344775  
  19 H       2.1692564 *  6.3848640    3.4488788    4.1004860    4.8992935  
  20 H       4.8992935    3.4128395    4.1004860    3.4488788    2.1692564 *
  21 H       3.4188139    8.2727165    3.9092029    5.8460200    6.1456919  
  22 H       6.1456919    2.1737504 *  5.8460200    3.9092029    3.4188139  
  23 H       3.9092029    8.4844092    3.4188139    6.1456919    5.8460200  
  24 H       5.8460200    1.0852786 *  6.1456919    3.4188139    3.9092029  

               11 C         12 C         13 C         14 C         15 H     

   1 C       6.4869983    6.1708220    5.6948466    4.9536400    5.0716017  
   2 C       3.7193891    4.2220798    2.4768225 *  3.7426803    4.6134639  
   3 C       6.1708220    6.4869983    4.9536400    5.6948466    6.3021212  
   4 C       4.2220798    3.7193891    3.7426803    2.4768225 *  2.7061842 *
   5 C       7.4475695    7.3100600    6.4869983    6.1708220    6.3848640  
   6 C       2.4330277 *  2.8240711 *  1.4287116 *  2.4688990 *  3.4488788  
   7 C       7.3100600    7.4475695    6.1708220    6.4869983    6.9183176  
   8 C       2.8240711 *  2.4330277 *  2.4688990 *  1.4287116 *  2.1692564 *
   9 C       4.8770588    5.0834493    3.7613975    4.2664220    4.8992935  
  10 C       5.0834493    4.8770588    4.2664220    3.7613975    4.1004860  
  11 C       0.0000000    1.4245400 *  1.3666156 *  2.4227548 *  3.4128395  
  12 C       1.4245400 *  0.0000000    2.4227548 *  1.3666156 *  2.1332703 *
  13 C       1.3666156 *  2.4227548 *  0.0000000    2.8094000 *  3.8955500  
  14 C       2.4227548 *  1.3666156 *  2.8094000 *  0.0000000    1.0861500 *
  15 H       3.4128395    2.1332703 *  3.8955500    1.0861500 *  0.0000000  
  16 H       6.3848640    6.9183176    5.0716017    6.3021212    7.0257833  
  17 H       4.8581952    4.0636271    4.6140085    2.7034320 *  2.4771114 *
  18 H       4.0636271    4.8581952    2.7034320 *  4.6140085    5.5611792  
  19 H       2.1332703 *  3.4128395    1.0861500 *  3.8955500    4.9817000  
  20 H       6.9183176    6.3848640    6.3021212    5.0716017    4.9542200  
  21 H       1.0852786 *  2.1737504 *  2.1296795 *  3.3957983    4.2972172  
  22 H       8.4844092    8.2727165    7.5571150    7.0791296    7.1864193  
  23 H       2.1737504 *  1.0852786 *  3.3957983    2.1296795 *  2.4618581 *
  24 H       8.2727165    8.4844092    7.0791296    7.5571150    8.0031214  

               16 H         17 H         18 H         19 H         20 H     

   1 C       3.8955500    2.7034320 *  4.6140085    6.3021212    1.0861500 *
   2 C       2.7061842 *  3.8893600    1.0869800 *  2.7061842 *  4.6134639  
   3 C       1.0861500 *  4.6140085    2.7034320 *  5.0716017    3.8955500  
   4 C       4.6134639    1.0869800 *  3.8893600    4.6134639    2.7061842 *
   5 C       3.4128395    4.0636271    4.8581952    6.9183176    2.1332703 *
   6 C       4.1004860    3.4344775    2.1480873 *  2.1692564 *  4.8992935  
   7 C       2.1332703 *  4.8581952    4.0636271    6.3848640    3.4128395  
   8 C       4.8992935    2.1480873 *  3.4344775    3.4488788    4.1004860  
   9 C       2.1692564 *  3.4344775    2.1480873 *  4.1004860    3.4488788  
  10 C       3.4488788    2.1480873 *  3.4344775    4.8992935    2.1692564 *
  11 C       6.3848640    4.8581952    4.0636271    2.1332703 *  6.9183176  
  12 C       6.9183176    4.0636271    4.8581952    3.4128395    6.3848640  
  13 C       5.0716017    4.6140085    2.7034320 *  1.0861500 *  6.3021212  
  14 C       6.3021212    2.7034320 *  4.6140085    3.8955500    5.0716017  
  15 H       7.0257833    2.4771114 *  5.5611792    4.9817000    4.9542200  
  16 H       0.0000000    5.5611792    2.4771114 *  4.9542200    4.9817000  
  17 H       5.5611792    0.0000000    4.9763400    5.5611792    2.4771114 *
  18 H       2.4771114 *  4.9763400    0.0000000    2.4771114 *  5.5611792  
  19 H       4.9542200    5.5611792    2.4771114 *  0.0000000    7.0257833  
  20 H       4.9817000    2.4771114 *  5.5611792    7.0257833    0.0000000  
  21 H       7.1864193    5.9246875    4.7654947    2.4618581 *  8.0031214  
  22 H       4.2972172    4.7654947    5.9246875    8.0031214    2.4618581 *
  23 H       8.0031214    4.7654947    5.9246875    4.2972172    7.1864193  
  24 H       2.4618581 *  5.9246875    4.7654947    7.1864193    4.2972172  

               21 H         22 H         23 H         24 H     

   1 C       7.5571150    2.1296795 *  7.0791296    3.3957983  
   2 C       4.6031576    5.3073054    5.3073054    4.6031576  
   3 C       7.0791296    3.3957983    7.5571150    2.1296795 *
   4 C       5.3073054    4.6031576    4.6031576    5.3073054  
   5 C       8.4844092    1.0852786 *  8.2727165    2.1737504 *
   6 C       3.4188139    6.1456919    3.9092029    5.8460200  
   7 C       8.2727165    2.1737504 *  8.4844092    1.0852786 *
   8 C       3.9092029    5.8460200    3.4188139    6.1456919  
   9 C       5.8460200    3.9092029    6.1456919    3.4188139  
  10 C       6.1456919    3.4188139    5.8460200    3.9092029  
  11 C       1.0852786 *  8.4844092    2.1737504 *  8.2727165  
  12 C       2.1737504 *  8.2727165    1.0852786 *  8.4844092  
  13 C       2.1296795 *  7.5571150    3.3957983    7.0791296  
  14 C       3.3957983    7.0791296    2.1296795 *  7.5571150  
  15 H       4.2972172    7.1864193    2.4618581 *  8.0031214  
  16 H       7.1864193    4.2972172    8.0031214    2.4618581 *
  17 H       5.9246875    4.7654947    4.7654947    5.9246875  
  18 H       4.7654947    5.9246875    5.9246875    4.7654947  
  19 H       2.4618581 *  8.0031214    4.2972172    7.1864193  
  20 H       8.0031214    2.4618581 *  7.1864193    4.2972172  
  21 H       0.0000000    9.5320389    2.4901800 *  9.2010200  
  22 H       9.5320389    0.0000000    9.2010200    2.4901800 *
  23 H       2.4901800 *  9.2010200    0.0000000    9.5320389  
  24 H       9.2010200    2.4901800 *  9.5320389    0.0000000  

  * ... LESS THAN  3.000


     ATOMIC BASIS SET
     ----------------
 THE CONTRACTED PRIMITIVE FUNCTIONS HAVE BEEN UNNORMALIZED
 THE CONTRACTED BASIS FUNCTIONS ARE NOW NORMALIZED TO UNITY

  SHELL TYPE  PRIMITIVE        EXPONENT          CONTRACTION COEFFICIENT(S)

 C         

      1   S       1          3047.5248800    0.001834737132
      1   S       2           457.3695180    0.014037322813
      1   S       3           103.9486850    0.068842622264
      1   S       4            29.2101553    0.232184443216
      1   S       5             9.2866630    0.467941348435
      1   S       6             3.1639270    0.362311985337

      2   L       7             7.8682723   -0.119332419775    0.068999066591
      2   L       8             1.8812885   -0.160854151696    0.316423960957
      2   L       9             0.5442493    1.143456437840    0.744308290898

      3   L      10             0.1687145    1.000000000000    1.000000000000

 C         

      4   S      11          3047.5248800    0.001834737132
      4   S      12           457.3695180    0.014037322813
      4   S      13           103.9486850    0.068842622264
      4   S      14            29.2101553    0.232184443216
      4   S      15             9.2866630    0.467941348435
      4   S      16             3.1639270    0.362311985337

      5   L      17             7.8682723   -0.119332419775    0.068999066591
      5   L      18             1.8812885   -0.160854151696    0.316423960957
      5   L      19             0.5442493    1.143456437840    0.744308290898

      6   L      20             0.1687145    1.000000000000    1.000000000000

 C         

      7   S      21          3047.5248800    0.001834737132
      7   S      22           457.3695180    0.014037322813
      7   S      23           103.9486850    0.068842622264
      7   S      24            29.2101553    0.232184443216
      7   S      25             9.2866630    0.467941348435
      7   S      26             3.1639270    0.362311985337

      8   L      27             7.8682723   -0.119332419775    0.068999066591
      8   L      28             1.8812885   -0.160854151696    0.316423960957
      8   L      29             0.5442493    1.143456437840    0.744308290898

      9   L      30             0.1687145    1.000000000000    1.000000000000

 C         

     10   S      31          3047.5248800    0.001834737132
     10   S      32           457.3695180    0.014037322813
     10   S      33           103.9486850    0.068842622264
     10   S      34            29.2101553    0.232184443216
     10   S      35             9.2866630    0.467941348435
     10   S      36             3.1639270    0.362311985337

     11   L      37             7.8682723   -0.119332419775    0.068999066591
     11   L      38             1.8812885   -0.160854151696    0.316423960957
     11   L      39             0.5442493    1.143456437840    0.744308290898

     12   L      40             0.1687145    1.000000000000    1.000000000000

 C         

     13   S      41          3047.5248800    0.001834737132
     13   S      42           457.3695180    0.014037322813
     13   S      43           103.9486850    0.068842622264
     13   S      44            29.2101553    0.232184443216
     13   S      45             9.2866630    0.467941348435
     13   S      46             3.1639270    0.362311985337

     14   L      47             7.8682723   -0.119332419775    0.068999066591
     14   L      48             1.8812885   -0.160854151696    0.316423960957
     14   L      49             0.5442493    1.143456437840    0.744308290898

     15   L      50             0.1687145    1.000000000000    1.000000000000

 C         

     16   S      51          3047.5248800    0.001834737132
     16   S      52           457.3695180    0.014037322813
     16   S      53           103.9486850    0.068842622264
     16   S      54            29.2101553    0.232184443216
     16   S      55             9.2866630    0.467941348435
     16   S      56             3.1639270    0.362311985337

     17   L      57             7.8682723   -0.119332419775    0.068999066591
     17   L      58             1.8812885   -0.160854151696    0.316423960957
     17   L      59             0.5442493    1.143456437840    0.744308290898

     18   L      60             0.1687145    1.000000000000    1.000000000000

 C         

     19   S      61          3047.5248800    0.001834737132
     19   S      62           457.3695180    0.014037322813
     19   S      63           103.9486850    0.068842622264
     19   S      64            29.2101553    0.232184443216
     19   S      65             9.2866630    0.467941348435
     19   S      66             3.1639270    0.362311985337

     20   L      67             7.8682723   -0.119332419775    0.068999066591
     20   L      68             1.8812885   -0.160854151696    0.316423960957
     20   L      69             0.5442493    1.143456437840    0.744308290898

     21   L      70             0.1687145    1.000000000000    1.000000000000

 C         

     22   S      71          3047.5248800    0.001834737132
     22   S      72           457.3695180    0.014037322813
     22   S      73           103.9486850    0.068842622264
     22   S      74            29.2101553    0.232184443216
     22   S      75             9.2866630    0.467941348435
     22   S      76             3.1639270    0.362311985337

     23   L      77             7.8682723   -0.119332419775    0.068999066591
     23   L      78             1.8812885   -0.160854151696    0.316423960957
     23   L      79             0.5442493    1.143456437840    0.744308290898

     24   L      80             0.1687145    1.000000000000    1.000000000000

 C         

     25   S      81          3047.5248800    0.001834737132
     25   S      82           457.3695180    0.014037322813
     25   S      83           103.9486850    0.068842622264
     25   S      84            29.2101553    0.232184443216
     25   S      85             9.2866630    0.467941348435
     25   S      86             3.1639270    0.362311985337

     26   L      87             7.8682723   -0.119332419775    0.068999066591
     26   L      88             1.8812885   -0.160854151696    0.316423960957
     26   L      89             0.5442493    1.143456437840    0.744308290898

     27   L      90             0.1687145    1.000000000000    1.000000000000

 C         

     28   S      91          3047.5248800    0.001834737132
     28   S      92           457.3695180    0.014037322813
     28   S      93           103.9486850    0.068842622264
     28   S      94            29.2101553    0.232184443216
     28   S      95             9.2866630    0.467941348435
     28   S      96             3.1639270    0.362311985337

     29   L      97             7.8682723   -0.119332419775    0.068999066591
     29   L      98             1.8812885   -0.160854151696    0.316423960957
     29   L      99             0.5442493    1.143456437840    0.744308290898

     30   L     100             0.1687145    1.000000000000    1.000000000000

 C         

     31   S     101          3047.5248800    0.001834737132
     31   S     102           457.3695180    0.014037322813
     31   S     103           103.9486850    0.068842622264
     31   S     104            29.2101553    0.232184443216
     31   S     105             9.2866630    0.467941348435
     31   S     106             3.1639270    0.362311985337

     32   L     107             7.8682723   -0.119332419775    0.068999066591
     32   L     108             1.8812885   -0.160854151696    0.316423960957
     32   L     109             0.5442493    1.143456437840    0.744308290898

     33   L     110             0.1687145    1.000000000000    1.000000000000

 C         

     34   S     111          3047.5248800    0.001834737132
     34   S     112           457.3695180    0.014037322813
     34   S     113           103.9486850    0.068842622264
     34   S     114            29.2101553    0.232184443216
     34   S     115             9.2866630    0.467941348435
     34   S     116             3.1639270    0.362311985337

     35   L     117             7.8682723   -0.119332419775    0.068999066591
     35   L     118             1.8812885   -0.160854151696    0.316423960957
     35   L     119             0.5442493    1.143456437840    0.744308290898

     36   L     120             0.1687145    1.000000000000    1.000000000000

 C         

     37   S     121          3047.5248800    0.001834737132
     37   S     122           457.3695180    0.014037322813
     37   S     123           103.9486850    0.068842622264
     37   S     124            29.2101553    0.232184443216
     37   S     125             9.2866630    0.467941348435
     37   S     126             3.1639270    0.362311985337

     38   L     127             7.8682723   -0.119332419775    0.068999066591
     38   L     128             1.8812885   -0.160854151696    0.316423960957
     38   L     129             0.5442493    1.143456437840    0.744308290898

     39   L     130             0.1687145    1.000000000000    1.000000000000

 C         

     40   S     131          3047.5248800    0.001834737132
     40   S     132           457.3695180    0.014037322813
     40   S     133           103.9486850    0.068842622264
     40   S     134            29.2101553    0.232184443216
     40   S     135             9.2866630    0.467941348435
     40   S     136             3.1639270    0.362311985337

     41   L     137             7.8682723   -0.119332419775    0.068999066591
     41   L     138             1.8812885   -0.160854151696    0.316423960957
     41   L     139             0.5442493    1.143456437840    0.744308290898

     42   L     140             0.1687145    1.000000000000    1.000000000000

 H         

     43   S     141            18.7311370    0.033494604338
     43   S     142             2.8253944    0.234726953484
     43   S     143             0.6401217    0.813757326146

     44   S     144             0.1612778    1.000000000000

 H         

     45   S     145            18.7311370    0.033494604338
     45   S     146             2.8253944    0.234726953484
     45   S     147             0.6401217    0.813757326146

     46   S     148             0.1612778    1.000000000000

 H         

     47   S     149            18.7311370    0.033494604338
     47   S     150             2.8253944    0.234726953484
     47   S     151             0.6401217    0.813757326146

     48   S     152             0.1612778    1.000000000000

 H         

     49   S     153            18.7311370    0.033494604338
     49   S     154             2.8253944    0.234726953484
     49   S     155             0.6401217    0.813757326146

     50   S     156             0.1612778    1.000000000000

 H         

     51   S     157            18.7311370    0.033494604338
     51   S     158             2.8253944    0.234726953484
     51   S     159             0.6401217    0.813757326146

     52   S     160             0.1612778    1.000000000000

 H         

     53   S     161            18.7311370    0.033494604338
     53   S     162             2.8253944    0.234726953484
     53   S     163             0.6401217    0.813757326146

     54   S     164             0.1612778    1.000000000000

 H         

     55   S     165            18.7311370    0.033494604338
     55   S     166             2.8253944    0.234726953484
     55   S     167             0.6401217    0.813757326146

     56   S     168             0.1612778    1.000000000000

 H         

     57   S     169            18.7311370    0.033494604338
     57   S     170             2.8253944    0.234726953484
     57   S     171             0.6401217    0.813757326146

     58   S     172             0.1612778    1.000000000000

 H         

     59   S     173            18.7311370    0.033494604338
     59   S     174             2.8253944    0.234726953484
     59   S     175             0.6401217    0.813757326146

     60   S     176             0.1612778    1.000000000000

 H         

     61   S     177            18.7311370    0.033494604338
     61   S     178             2.8253944    0.234726953484
     61   S     179             0.6401217    0.813757326146

     62   S     180             0.1612778    1.000000000000

 TOTAL NUMBER OF BASIS SET SHELLS             =   62
 NUMBER OF CARTESIAN GAUSSIAN BASIS FUNCTIONS =  146
 NUMBER OF ELECTRONS                          =   94
 CHARGE OF MOLECULE                           =    0
 SPIN MULTIPLICITY                            =    1
 NUMBER OF OCCUPIED ORBITALS (ALPHA)          =   47
 NUMBER OF OCCUPIED ORBITALS (BETA )          =   47
 TOTAL NUMBER OF ATOMS                        =   24
 THE NUCLEAR REPULSION ENERGY IS      766.3548992199

     $CONTRL OPTIONS
     ---------------
 SCFTYP=RHF          RUNTYP=ENERGY       EXETYP=RUN     
 MPLEVL=       0     CITYP =NONE         CCTYP =NONE         VBTYP =XMVB    
 DFTTYP=NONE         TDDFT =NONE    
 MULT  =       1     ICHARG=       0     NZVAR =       0     COORD =UNIQUE  
 PP    =NONE         RELWFN=NONE         LOCAL =NONE         NUMGRD=       F
 ISPHER=      -1     NOSYM =       0     MAXIT =      30     UNITS =ANGS    
 PLTORB=       F     MOLPLT=       F     AIMPAC=       F     FRIEND=        
 NPRINT=       7     IREST =       0     GEOM  =INPUT   
 NORMF =       0     NORMP =       0     ITOL  =      20     ICUT  =       9
 INTTYP=BEST         GRDTYP=BEST         QMTTOL= 1.0E-06

     $SYSTEM OPTIONS
     ---------------
  REPLICATED MEMORY=     1000000 WORDS (ON EVERY NODE).
 DISTRIBUTED MEMDDI=           0 MILLION WORDS IN AGGREGATE,
 MEMDDI DISTRIBUTED OVER   1 PROCESSORS IS           0 WORDS/PROCESSOR.
 TOTAL MEMORY REQUESTED ON EACH PROCESSOR=     1000000 WORDS.
 TIMLIM=      525600.00 MINUTES, OR     365.0 DAYS.
 PARALL= F  BALTYP=  DLB     KDIAG=    0  COREFL= F
 MXSEQ2=     300 MXSEQ3=     150  mem10=         0  mem22=         0

 Using Gaussians for PCM contribution to MEP, params: 0.10000E+01 0.10000E-07

          ----------------
          PROPERTIES INPUT
          ----------------

     MOMENTS            FIELD           POTENTIAL          DENSITY
 IEMOM =       1   IEFLD =       0   IEPOT =       0   IEDEN =       0
 WHERE =COMASS     WHERE =NUCLEI     WHERE =NUCLEI     WHERE =NUCLEI  
 OUTPUT=BOTH       OUTPUT=BOTH       OUTPUT=BOTH       OUTPUT=BOTH    
 IEMINT=       0   IEFINT=       0                     IEDINT=       0
                                                       MORB  =       0
          EXTRAPOLATION IN EFFECT
          SOSCF IN EFFECT
 ORBITAL PRINTING OPTION: NPREO=     1   146     2     1

     -------------------------------
     INTEGRAL TRANSFORMATION OPTIONS
     -------------------------------
     NWORD  =            0
     CUTOFF = 1.0E-09     MPTRAN =       0
     DIRTRF =       T     AOINTS =DUP     

          ----------------------
          INTEGRAL INPUT OPTIONS
          ----------------------
 NOPK  =       1 NORDER=       0 SCHWRZ=       T

     ------------------------------------------
     THE POINT GROUP IS C1 , NAXIS= 0, ORDER= 1
     ------------------------------------------

     DIMENSIONS OF THE SYMMETRY SUBSPACES ARE
 A   =  146

 ..... DONE SETTING UP THE RUN .....
 STEP CPU TIME =     0.11 TOTAL CPU TIME =          0.1 (      0.0 MIN)
 TOTAL WALL CLOCK TIME=          0.1 SECONDS, CPU UTILIZATION IS    98.64%

          ********************
          1 ELECTRON INTEGRALS
          ********************
 ...... END OF ONE-ELECTRON INTEGRALS ......
 STEP CPU TIME =     0.04 TOTAL CPU TIME =          0.2 (      0.0 MIN)
 TOTAL WALL CLOCK TIME=          0.2 SECONDS, CPU UTILIZATION IS    98.98%

          -------------
          GUESS OPTIONS
          -------------
          GUESS =MOREAD            NORB  =      47          NORDER=       0
          MIX   =       F          PRTMO =       F          PUNMO =       F
          TOLZ  = 1.0E-08          TOLE  = 1.0E-05
          SYMDEN=       F          PURIFY=       F

 INITIAL GUESS ORBITALS GENERATED BY MOREAD   ROUTINE.

 SYMMETRIES FOR INITIAL GUESS ORBITALS FOLLOW.   BOTH SET(S).
    47 ORBITALS ARE OCCUPIED (   14 CORE ORBITALS).
     1=A        2=A        3=A        4=A        5=A        6=A        7=A   
     8=A        9=A       10=A       11=A       12=A       13=A       14=A   
    15=A       16=A       17=A       18=A       19=A       20=A       21=A   
    22=A       23=A       24=A       25=A       26=A       27=A       28=A   
    29=A       30=A       31=A       32=A       33=A       34=A       35=A   
    36=A       37=A       38=A       39=A       40=A       41=A       42=A   
    43=A       44=A       45=A       46=A       47=A       48=A       49=A   
    50=A       51=A       52=A       53=A       54=A       55=A       56=A   
    57=A       58=A       59=A       60=A       61=A       62=A       63=A   
    64=A       65=A       66=A       67=A       68=A       69=A       70=A   
    71=A       72=A       73=A       74=A       75=A       76=A       77=A   
    78=A       79=A       80=A       81=A       82=A       83=A       84=A   
    85=A       86=A       87=A       88=A       89=A       90=A       91=A   
    92=A       93=A       94=A       95=A       96=A       97=A       98=A   
    99=A      100=A      101=A      102=A      103=A      104=A      105=A   
   106=A      107=A      108=A      109=A      110=A      111=A      112=A   
   113=A      114=A      115=A      116=A      117=A      118=A      119=A   
   120=A      121=A      122=A      123=A      124=A      125=A      126=A   
   127=A      128=A      129=A      130=A      131=A      132=A      133=A   
   134=A      135=A      136=A      137=A      138=A      139=A      140=A   
   141=A      142=A      143=A      144=A      145=A      146=A   
 ...... END OF INITIAL ORBITAL SELECTION ......
 STEP CPU TIME =     0.02 TOTAL CPU TIME =          0.2 (      0.0 MIN)
 TOTAL WALL CLOCK TIME=          0.2 SECONDS, CPU UTILIZATION IS    99.09%

                    ----------------------
                    AO INTEGRAL TECHNOLOGY
                    ----------------------
     S,P,L SHELL ROTATED AXIS INTEGRALS, REPROGRAMMED BY
        KAZUYA ISHIMURA (IMS) AND JOSE SIERRA (SYNSTAR).
     S,P,D,L SHELL ROTATED AXIS INTEGRALS PROGRAMMED BY
        KAZUYA ISHIMURA (INSTITUTE FOR MOLECULAR SCIENCE).
     S,P,D,F,G SHELL TO TOTAL QUARTET ANGULAR MOMENTUM SUM 5,
        ERIC PROGRAM BY GRAHAM FLETCHER (ELORET AND NASA ADVANCED
        SUPERCOMPUTING DIVISION, AMES RESEARCH CENTER).
     S,P,D,F,G,L SHELL GENERAL RYS QUADRATURE PROGRAMMED BY
        MICHEL DUPUIS (PACIFIC NORTHWEST NATIONAL LABORATORY).

          --------------------
          2 ELECTRON INTEGRALS
          --------------------

 DIRECT SCF METHOD SKIPS INTEGRAL STORAGE ON DISK.
 DIRECT TRANSFORMATION SKIPS AO INTEGRAL STORAGE ON DISK.
  ...... END OF TWO-ELECTRON INTEGRALS .....
 STEP CPU TIME =     0.01 TOTAL CPU TIME =          0.2 (      0.0 MIN)
 TOTAL WALL CLOCK TIME=          0.2 SECONDS, CPU UTILIZATION IS    98.33%

          --------------------------
                 RHF SCF CALCULATION
          --------------------------

     NUCLEAR ENERGY =       766.3548992199
     MAXIT =   30     NPUNCH=    2
     EXTRAP=T  DAMP=F  SHIFT=F  RSTRCT=F  DIIS=F  DEM=F  SOSCF=T
     DENSITY MATRIX CONV=  2.00E-05
     SOSCF WILL OPTIMIZE    4653 ORBITAL ROTATIONS, SOGTOL=   0.250
     MEMORY REQUIRED FOR RHF ITERS=    218130 WORDS.

 DIRECT SCF CALCULATION, SCHWRZ=T   FDIFF=T,  DIRTHR=  0.00E+00 NITDIR=10
 SCHWARZ INEQUALITY OVERHEAD:     10132 INTEGRALS, T=        0.01

                                                                                   NONZERO     BLOCKS
 ITER EX DEM     TOTAL ENERGY        E CHANGE  DENSITY CHANGE     ORB. GRAD      INTEGRALS    SKIPPED
   1  0  0     -535.8100732708  -535.8100732708   0.000001632   0.000000000       20051645     997805
          ---------------START SECOND ORDER SCF---------------
   2  1  0     -535.8100732714    -0.0000000006   0.000000907   0.000000471       11841475    1532432

          -----------------
          DENSITY CONVERGED
          -----------------
     TIME TO FORM FOCK OPERATORS=       4.2 SECONDS (       2.1 SEC/ITER)
     FOCK TIME ON FIRST ITERATION=       2.7, LAST ITERATION=       1.4
     TIME TO SOLVE SCF EQUATIONS=       0.0 SECONDS (       0.0 SEC/ITER)

 FINAL RHF ENERGY IS     -535.8100732714 AFTER   2 ITERATIONS

          ------------
          EIGENVECTORS
          ------------

                      1          2          3          4          5
                  -11.2513   -11.2513   -11.2504   -11.2503   -11.2423
                     A          A          A          A          A   
    1  C  1  S    0.024165  -0.024334  -0.027218   0.027656   0.061678
    2  C  1  S    0.000149  -0.000204  -0.000243   0.000198   0.001409
    3  C  1  X    0.000000  -0.000000   0.000000  -0.000000  -0.000000
    4  C  1  Y   -0.000128   0.000117   0.000109  -0.000044   0.000021
    5  C  1  Z   -0.000068   0.000090   0.000045  -0.000040  -0.000016
    6  C  1  S    0.002150  -0.001868  -0.001780   0.004378  -0.000672
    7  C  1  X    0.000000  -0.000000   0.000000  -0.000000  -0.000000
    8  C  1  Y    0.001512  -0.000672  -0.000785   0.000077  -0.000556
    9  C  1  Z    0.000379  -0.000608  -0.000876   0.002684   0.000847
   10  C  2  S    0.062808  -0.000000   0.071062  -0.000000   0.695234
   11  C  2  S    0.000590  -0.000000   0.000726  -0.000000   0.017977
   12  C  2  X    0.000000  -0.000000   0.000000  -0.000000  -0.000000
   13  C  2  Y    0.000000  -0.000285   0.000000  -0.000190  -0.000000
   14  C  2  Z    0.000174  -0.000000   0.000086  -0.000000  -0.000330
   15  C  2  S    0.005287  -0.000000   0.009156  -0.000000  -0.017198
   16  C  2  X    0.000000  -0.000000   0.000000  -0.000000  -0.000000
   17  C  2  Y    0.000000   0.002131   0.000000   0.000072  -0.000000
   18  C  2  Z   -0.001417  -0.000000  -0.004441  -0.000000   0.005544
   19  C  3  S    0.024165  -0.024334   0.027218  -0.027656  -0.061678
   20  C  3  S    0.000149  -0.000204   0.000243  -0.000198  -0.001409
   21  C  3  X    0.000000  -0.000000   0.000000  -0.000000  -0.000000
   22  C  3  Y   -0.000128   0.000117  -0.000109   0.000044  -0.000021
   23  C  3  Z    0.000068  -0.000090   0.000045  -0.000040  -0.000016
   24  C  3  S    0.002150  -0.001868   0.001780  -0.004378   0.000672
   25  C  3  X    0.000000  -0.000000   0.000000  -0.000000  -0.000000
   26  C  3  Y    0.001512  -0.000672   0.000785  -0.000077   0.000556
   27  C  3  Z   -0.000379   0.000608  -0.000876   0.002684   0.000847
   28  C  4  S    0.062808  -0.000000  -0.071062  -0.000000  -0.695234
   29  C  4  S    0.000590  -0.000000  -0.000726  -0.000000  -0.017977
   30  C  4  X    0.000000  -0.000000   0.000000  -0.000000  -0.000000
   31  C  4  Y    0.000000  -0.000285   0.000000   0.000190  -0.000000
   32  C  4  Z   -0.000174  -0.000000   0.000086  -0.000000  -0.000330
   33  C  4  S    0.005287  -0.000000  -0.009156  -0.000000   0.017198
   34  C  4  X    0.000000  -0.000000   0.000000  -0.000000  -0.000000
   35  C  4  Y    0.000000   0.002131   0.000000  -0.000072  -0.000000
   36  C  4  Z    0.001417  -0.000000  -0.004441  -0.000000   0.005544
   37  C  5  S    0.000955  -0.000934  -0.002013   0.002157   0.021903
   38  C  5  S   -0.000064   0.000056  -0.000094   0.000164   0.000585
   39  C  5  X    0.000000  -0.000000   0.000000  -0.000000  -0.000000
   40  C  5  Y   -0.000048   0.000068   0.000013  -0.000042  -0.000035
   41  C  5  Z    0.000016  -0.000014  -0.000036   0.000053   0.000021
   42  C  5  S    0.000382   0.000216   0.000944  -0.002908  -0.001488
   43  C  5  X    0.000000  -0.000000   0.000000  -0.000000  -0.000000
   44  C  5  Y    0.000099   0.000020   0.000463  -0.001548  -0.000719
   45  C  5  Z   -0.000213  -0.000021   0.000542  -0.000492  -0.000377
   46  C  6  S    0.495424   0.497419   0.494878   0.497413  -0.046769
   47  C  6  S    0.012172   0.012293   0.013213   0.013220  -0.002069
   48  C  6  X    0.000000  -0.000000   0.000000  -0.000000  -0.000000
   49  C  6  Y    0.000041  -0.000076  -0.000029   0.000003   0.000179
   50  C  6  Z    0.000103   0.000066  -0.000192  -0.000190  -0.000069
   51  C  6  S   -0.007674  -0.006650  -0.016850  -0.014421   0.011108
   52  C  6  X    0.000000  -0.000000   0.000000  -0.000000  -0.000000
   53  C  6  Y    0.000219   0.000167   0.002696  -0.001960  -0.004407
   54  C  6  Z   -0.001411  -0.000944   0.003161   0.004555  -0.002381
   55  C  7  S    0.000955  -0.000934   0.002013  -0.002157  -0.021903
   56  C  7  S   -0.000064   0.000056   0.000094  -0.000164  -0.000585
   57  C  7  X    0.000000  -0.000000   0.000000  -0.000000  -0.000000
   58  C  7  Y   -0.000048   0.000068  -0.000013   0.000042   0.000035
   59  C  7  Z   -0.000016   0.000014  -0.000036   0.000053   0.000021
   60  C  7  S    0.000382   0.000216  -0.000944   0.002908   0.001488
   61  C  7  X    0.000000  -0.000000   0.000000  -0.000000  -0.000000
   62  C  7  Y    0.000099   0.000020  -0.000463   0.001548   0.000719
   63  C  7  Z    0.000213   0.000021   0.000542  -0.000492  -0.000377
   64  C  8  S    0.495424   0.497419  -0.494878  -0.497413   0.046769
   65  C  8  S    0.012172   0.012293  -0.013213  -0.013220   0.002069
   66  C  8  X    0.000000  -0.000000   0.000000  -0.000000  -0.000000
   67  C  8  Y    0.000041  -0.000076   0.000029  -0.000003  -0.000179
   68  C  8  Z   -0.000103  -0.000066  -0.000192  -0.000190  -0.000069
   69  C  8  S   -0.007674  -0.006650   0.016850   0.014421  -0.011108
   70  C  8  X    0.000000  -0.000000   0.000000  -0.000000  -0.000000
   71  C  8  Y    0.000219   0.000167  -0.002696   0.001960   0.004407
   72  C  8  Z    0.001411   0.000944   0.003161   0.004555  -0.002381
   73  C  9  S    0.495424  -0.497419   0.494878  -0.497413  -0.046769
   74  C  9  S    0.012172  -0.012293   0.013213  -0.013220  -0.002069
   75  C  9  X    0.000000  -0.000000   0.000000  -0.000000  -0.000000
   76  C  9  Y   -0.000041  -0.000076   0.000029   0.000003  -0.000179
   77  C  9  Z    0.000103  -0.000066  -0.000192   0.000190  -0.000069
   78  C  9  S   -0.007674   0.006650  -0.016850   0.014421   0.011108
   79  C  9  X    0.000000  -0.000000   0.000000  -0.000000  -0.000000
   80  C  9  Y   -0.000219   0.000167  -0.002696  -0.001960   0.004407
   81  C  9  Z   -0.001411   0.000944   0.003161  -0.004555  -0.002381
   82  C 10  S    0.495424  -0.497419  -0.494878   0.497413   0.046769
   83  C 10  S    0.012172  -0.012293  -0.013213   0.013220   0.002069
   84  C 10  X    0.000000  -0.000000   0.000000  -0.000000  -0.000000
   85  C 10  Y   -0.000041  -0.000076  -0.000029  -0.000003   0.000179
   86  C 10  Z   -0.000103   0.000066  -0.000192   0.000190  -0.000069
   87  C 10  S   -0.007674   0.006650   0.016850  -0.014421  -0.011108
   88  C 10  X    0.000000  -0.000000   0.000000  -0.000000  -0.000000
   89  C 10  Y   -0.000219   0.000167   0.002696   0.001960  -0.004407
   90  C 10  Z    0.001411  -0.000944   0.003161  -0.004555  -0.002381
   91  C 11  S    0.000955   0.000934   0.002013   0.002157  -0.021903
   92  C 11  S   -0.000064  -0.000056   0.000094   0.000164  -0.000585
   93  C 11  X    0.000000  -0.000000   0.000000  -0.000000  -0.000000
   94  C 11  Y    0.000048   0.000068   0.000013   0.000042  -0.000035
   95  C 11  Z   -0.000016  -0.000014  -0.000036  -0.000053   0.000021
   96  C 11  S    0.000382  -0.000216  -0.000944  -0.002908   0.001488
   97  C 11  X    0.000000  -0.000000   0.000000  -0.000000  -0.000000
   98  C 11  Y   -0.000099   0.000020   0.000463   0.001548  -0.000719
   99  C 11  Z    0.000213  -0.000021   0.000542   0.000492  -0.000377
  100  C 12  S    0.000955   0.000934  -0.002013  -0.002157   0.021903
  101  C 12  S   -0.000064  -0.000056  -0.000094  -0.000164   0.000585
  102  C 12  X    0.000000  -0.000000   0.000000  -0.000000  -0.000000
  103  C 12  Y    0.000048   0.000068  -0.000013  -0.000042   0.000035
  104  C 12  Z    0.000016   0.000014  -0.000036  -0.000053   0.000021
  105  C 12  S    0.000382  -0.000216   0.000944   0.002908  -0.001488
  106  C 12  X    0.000000  -0.000000   0.000000  -0.000000  -0.000000
  107  C 12  Y   -0.000099   0.000020  -0.000463  -0.001548   0.000719
  108  C 12  Z   -0.000213   0.000021   0.000542   0.000492  -0.000377
  109  C 13  S    0.024165   0.024334   0.027218   0.027656  -0.061678
  110  C 13  S    0.000149   0.000204   0.000243   0.000198  -0.001409
  111  C 13  X    0.000000  -0.000000   0.000000  -0.000000  -0.000000
  112  C 13  Y    0.000128   0.000117   0.000109   0.000044   0.000021
  113  C 13  Z    0.000068   0.000090   0.000045   0.000040  -0.000016
  114  C 13  S    0.002150   0.001868   0.001780   0.004378   0.000672
  115  C 13  X    0.000000  -0.000000   0.000000  -0.000000  -0.000000
  116  C 13  Y   -0.001512  -0.000672  -0.000785  -0.000077  -0.000556
  117  C 13  Z   -0.000379  -0.000608  -0.000876  -0.002684   0.000847
  118  C 14  S    0.024165   0.024334  -0.027218  -0.027656   0.061678
  119  C 14  S    0.000149   0.000204  -0.000243  -0.000198   0.001409
  120  C 14  X    0.000000  -0.000000   0.000000  -0.000000  -0.000000
  121  C 14  Y    0.000128   0.000117  -0.000109  -0.000044  -0.000021
  122  C 14  Z   -0.000068  -0.000090   0.000045   0.000040  -0.000016
  123  C 14  S    0.002150   0.001868  -0.001780  -0.004378  -0.000672
  124  C 14  X    0.000000  -0.000000   0.000000  -0.000000  -0.000000
  125  C 14  Y   -0.001512  -0.000672   0.000785   0.000077   0.000556
  126  C 14  Z    0.000379   0.000608  -0.000876  -0.002684   0.000847
  127  H 15  S   -0.000100  -0.000031   0.000078  -0.000034   0.000048
  128  H 15  S    0.000047   0.000097  -0.000145  -0.000612   0.000538
  129  H 16  S   -0.000100   0.000031  -0.000078  -0.000034  -0.000048
  130  H 16  S    0.000047  -0.000097   0.000145  -0.000612  -0.000538
  131  H 17  S   -0.000120  -0.000000   0.000054  -0.000000   0.000322
  132  H 17  S    0.000160  -0.000000  -0.000817  -0.000000  -0.000367
  133  H 18  S   -0.000120  -0.000000  -0.000054  -0.000000  -0.000322
  134  H 18  S    0.000160  -0.000000   0.000817  -0.000000   0.000367
  135  H 19  S   -0.000100  -0.000031  -0.000078   0.000034  -0.000048
  136  H 19  S    0.000047   0.000097   0.000145   0.000612  -0.000538
  137  H 20  S   -0.000100   0.000031   0.000078   0.000034   0.000048
  138  H 20  S    0.000047  -0.000097  -0.000145   0.000612   0.000538
  139  H 21  S   -0.000011   0.000019  -0.000020  -0.000029   0.000038
  140  H 21  S    0.000050   0.000087  -0.000136  -0.000303   0.000174
  141  H 22  S   -0.000011  -0.000019   0.000020  -0.000029  -0.000038
  142  H 22  S    0.000050  -0.000087   0.000136  -0.000303  -0.000174
  143  H 23  S   -0.000011   0.000019   0.000020   0.000029  -0.000038
  144  H 23  S    0.000050   0.000087   0.000136   0.000303  -0.000174
  145  H 24  S   -0.000011  -0.000019  -0.000020   0.000029   0.000038
  146  H 24  S    0.000050  -0.000087  -0.000136   0.000303   0.000174

                      6          7          8          9         10
                  -11.2423   -11.2422   -11.2422   -11.2419   -11.2419
                     A          A          A          A          A   
    1  C  1  S   -0.090538   0.382102   0.371101  -0.454110  -0.449872
    2  C  1  S   -0.002285   0.009330   0.009009  -0.011435  -0.011340
    3  C  1  X    0.000000  -0.000000  -0.000000  -0.000000  -0.000000
    4  C  1  Y   -0.000010   0.000123   0.000104  -0.000045  -0.000081
    5  C  1  Z    0.000010   0.000060   0.000068  -0.000193  -0.000212
    6  C  1  S    0.001908  -0.005396  -0.004876   0.008387   0.006728
    7  C  1  X    0.000000  -0.000000  -0.000000  -0.000000  -0.000000
    8  C  1  Y   -0.000029  -0.000845  -0.000534   0.000068  -0.000201
    9  C  1  Z    0.000621  -0.000785  -0.000544   0.002401   0.001606
   10  C  2  S    0.684880  -0.000000   0.151797  -0.000000   0.088358
   11  C  2  S    0.017531  -0.000000   0.003754  -0.000000   0.002562
   12  C  2  X    0.000000  -0.000000  -0.000000  -0.000000  -0.000000
   13  C  2  Y    0.000000   0.000023  -0.000000   0.000055  -0.000000
   14  C  2  Z   -0.000263  -0.000000  -0.000116  -0.000000  -0.000085
   15  C  2  S   -0.015385  -0.000000  -0.002325  -0.000000  -0.006156
   16  C  2  X    0.000000  -0.000000  -0.000000  -0.000000  -0.000000
   17  C  2  Y    0.000000  -0.000859  -0.000000  -0.001318  -0.000000
   18  C  2  Z    0.003467  -0.000000   0.000664  -0.000000   0.003995
   19  C  3  S   -0.090538   0.382102   0.371101   0.454110   0.449872
   20  C  3  S   -0.002285   0.009330   0.009009   0.011435   0.011340
   21  C  3  X    0.000000  -0.000000  -0.000000  -0.000000  -0.000000
   22  C  3  Y   -0.000010   0.000123   0.000104   0.000045   0.000081
   23  C  3  Z   -0.000010  -0.000060  -0.000068  -0.000193  -0.000212
   24  C  3  S    0.001908  -0.005396  -0.004876  -0.008387  -0.006728
   25  C  3  X    0.000000  -0.000000  -0.000000  -0.000000  -0.000000
   26  C  3  Y   -0.000029  -0.000845  -0.000534  -0.000068   0.000201
   27  C  3  Z   -0.000621   0.000785   0.000544   0.002401   0.001606
   28  C  4  S    0.684880  -0.000000   0.151797  -0.000000  -0.088358
   29  C  4  S    0.017531  -0.000000   0.003754  -0.000000  -0.002562
   30  C  4  X    0.000000  -0.000000  -0.000000  -0.000000  -0.000000
   31  C  4  Y    0.000000   0.000023  -0.000000  -0.000055  -0.000000
   32  C  4  Z    0.000263  -0.000000   0.000116  -0.000000  -0.000085
   33  C  4  S   -0.015385  -0.000000  -0.002325  -0.000000   0.006156
   34  C  4  X    0.000000  -0.000000  -0.000000  -0.000000  -0.000000
   35  C  4  Y    0.000000  -0.000859  -0.000000   0.001318  -0.000000
   36  C  4  Z   -0.003467  -0.000000  -0.000664  -0.000000   0.003995
   37  C  5  S   -0.062205   0.318697   0.312885  -0.202798  -0.201798
   38  C  5  S   -0.001487   0.007398   0.007229  -0.004809  -0.004794
   39  C  5  X    0.000000  -0.000000  -0.000000  -0.000000  -0.000000
   40  C  5  Y   -0.000023   0.000029   0.000018   0.000012   0.000022
   41  C  5  Z   -0.000001  -0.000043  -0.000042  -0.000166  -0.000177
   42  C  5  S   -0.000013  -0.001763  -0.001620  -0.000323   0.000240
   43  C  5  X    0.000000  -0.000000  -0.000000  -0.000000  -0.000000
   44  C  5  Y   -0.000028   0.000494   0.000555  -0.001637  -0.001399
   45  C  5  Z    0.000148   0.000213   0.000159   0.000545   0.000690
   46  C  6  S   -0.039121   0.019410  -0.028522   0.026307  -0.032149
   47  C  6  S   -0.001587   0.000826  -0.001247   0.001155  -0.001548
   48  C  6  X    0.000000  -0.000000  -0.000000  -0.000000  -0.000000
   49  C  6  Y    0.000272   0.000194  -0.000119   0.000083  -0.000047
   50  C  6  Z   -0.000005  -0.000012   0.000030   0.000047  -0.000060
   51  C  6  S    0.004845  -0.001643   0.002906  -0.005013   0.009452
   52  C  6  X    0.000000  -0.000000  -0.000000  -0.000000  -0.000000
   53  C  6  Y   -0.003374  -0.001708   0.000512  -0.002504  -0.001740
   54  C  6  Z    0.000762  -0.000072   0.000199   0.001923  -0.002255
   55  C  7  S   -0.062205   0.318697   0.312885   0.202798   0.201798
   56  C  7  S   -0.001487   0.007398   0.007229   0.004809   0.004794
   57  C  7  X    0.000000  -0.000000  -0.000000  -0.000000  -0.000000
   58  C  7  Y   -0.000023   0.000029   0.000018  -0.000012  -0.000022
   59  C  7  Z    0.000001   0.000043   0.000042  -0.000166  -0.000177
   60  C  7  S   -0.000013  -0.001763  -0.001620   0.000323  -0.000240
   61  C  7  X    0.000000  -0.000000  -0.000000  -0.000000  -0.000000
   62  C  7  Y   -0.000028   0.000494   0.000555   0.001637   0.001399
   63  C  7  Z   -0.000148  -0.000213  -0.000159   0.000545   0.000690
   64  C  8  S   -0.039121   0.019410  -0.028522  -0.026307   0.032149
   65  C  8  S   -0.001587   0.000826  -0.001247  -0.001155   0.001548
   66  C  8  X    0.000000  -0.000000  -0.000000  -0.000000  -0.000000
   67  C  8  Y    0.000272   0.000194  -0.000119  -0.000083   0.000047
   68  C  8  Z    0.000005   0.000012  -0.000030   0.000047  -0.000060
   69  C  8  S    0.004845  -0.001643   0.002906   0.005013  -0.009452
   70  C  8  X    0.000000  -0.000000  -0.000000  -0.000000  -0.000000
   71  C  8  Y   -0.003374  -0.001708   0.000512   0.002504   0.001740
   72  C  8  Z   -0.000762   0.000072  -0.000199   0.001923  -0.002255
   73  C  9  S   -0.039121  -0.019410  -0.028522  -0.026307  -0.032149
   74  C  9  S   -0.001587  -0.000826  -0.001247  -0.001155  -0.001548
   75  C  9  X    0.000000  -0.000000  -0.000000  -0.000000  -0.000000
   76  C  9  Y   -0.000272   0.000194   0.000119   0.000083   0.000047
   77  C  9  Z   -0.000005   0.000012   0.000030  -0.000047  -0.000060
   78  C  9  S    0.004845   0.001643   0.002906   0.005013   0.009452
   79  C  9  X    0.000000  -0.000000  -0.000000  -0.000000  -0.000000
   80  C  9  Y    0.003374  -0.001708  -0.000512  -0.002504   0.001740
   81  C  9  Z    0.000762   0.000072   0.000199  -0.001923  -0.002255
   82  C 10  S   -0.039121  -0.019410  -0.028522   0.026307   0.032149
   83  C 10  S   -0.001587  -0.000826  -0.001247   0.001155   0.001548
   84  C 10  X    0.000000  -0.000000  -0.000000  -0.000000  -0.000000
   85  C 10  Y   -0.000272   0.000194   0.000119  -0.000083  -0.000047
   86  C 10  Z    0.000005  -0.000012  -0.000030  -0.000047  -0.000060
   87  C 10  S    0.004845   0.001643   0.002906  -0.005013  -0.009452
   88  C 10  X    0.000000  -0.000000  -0.000000  -0.000000  -0.000000
   89  C 10  Y    0.003374  -0.001708  -0.000512   0.002504  -0.001740
   90  C 10  Z   -0.000762  -0.000072  -0.000199  -0.001923  -0.002255
   91  C 11  S   -0.062205  -0.318697   0.312885  -0.202798   0.201798
   92  C 11  S   -0.001487  -0.007398   0.007229  -0.004809   0.004794
   93  C 11  X    0.000000  -0.000000  -0.000000  -0.000000  -0.000000
   94  C 11  Y    0.000023   0.000029  -0.000018  -0.000012   0.000022
   95  C 11  Z    0.000001  -0.000043   0.000042   0.000166  -0.000177
   96  C 11  S   -0.000013   0.001763  -0.001620  -0.000323  -0.000240
   97  C 11  X    0.000000  -0.000000  -0.000000  -0.000000  -0.000000
   98  C 11  Y    0.000028   0.000494  -0.000555   0.001637  -0.001399
   99  C 11  Z   -0.000148   0.000213  -0.000159  -0.000545   0.000690
  100  C 12  S   -0.062205  -0.318697   0.312885   0.202798  -0.201798
  101  C 12  S   -0.001487  -0.007398   0.007229   0.004809  -0.004794
  102  C 12  X    0.000000  -0.000000  -0.000000  -0.000000  -0.000000
  103  C 12  Y    0.000023   0.000029  -0.000018   0.000012  -0.000022
  104  C 12  Z   -0.000001   0.000043  -0.000042   0.000166  -0.000177
  105  C 12  S   -0.000013   0.001763  -0.001620   0.000323   0.000240
  106  C 12  X    0.000000  -0.000000  -0.000000  -0.000000  -0.000000
  107  C 12  Y    0.000028   0.000494  -0.000555  -0.001637   0.001399
  108  C 12  Z    0.000148  -0.000213   0.000159  -0.000545   0.000690
  109  C 13  S   -0.090538  -0.382102   0.371101  -0.454110   0.449872
  110  C 13  S   -0.002285  -0.009330   0.009009  -0.011435   0.011340
  111  C 13  X    0.000000  -0.000000  -0.000000  -0.000000  -0.000000
  112  C 13  Y    0.000010   0.000123  -0.000104   0.000045  -0.000081
  113  C 13  Z   -0.000010   0.000060  -0.000068   0.000193  -0.000212
  114  C 13  S    0.001908   0.005396  -0.004876   0.008387  -0.006728
  115  C 13  X    0.000000  -0.000000  -0.000000  -0.000000  -0.000000
  116  C 13  Y    0.000029  -0.000845   0.000534  -0.000068  -0.000201
  117  C 13  Z   -0.000621  -0.000785   0.000544  -0.002401   0.001606
  118  C 14  S   -0.090538  -0.382102   0.371101   0.454110  -0.449872
  119  C 14  S   -0.002285  -0.009330   0.009009   0.011435  -0.011340
  120  C 14  X    0.000000  -0.000000  -0.000000  -0.000000  -0.000000
  121  C 14  Y    0.000010   0.000123  -0.000104  -0.000045   0.000081
  122  C 14  Z    0.000010  -0.000060   0.000068   0.000193  -0.000212
  123  C 14  S    0.001908   0.005396  -0.004876  -0.008387   0.006728
  124  C 14  X    0.000000  -0.000000  -0.000000  -0.000000  -0.000000
  125  C 14  Y    0.000029  -0.000845   0.000534   0.000068   0.000201
  126  C 14  Z    0.000621   0.000785  -0.000544  -0.002401   0.001606
  127  H 15  S    0.000057   0.000121  -0.000127  -0.000215   0.000199
  128  H 15  S   -0.000122  -0.000709   0.000790   0.000363  -0.000598
  129  H 16  S    0.000057  -0.000121  -0.000127  -0.000215  -0.000199
  130  H 16  S   -0.000122   0.000709   0.000790   0.000363   0.000598
  131  H 17  S   -0.000208  -0.000000  -0.000095  -0.000000   0.000207
  132  H 17  S    0.000976  -0.000000   0.000098  -0.000000   0.000998
  133  H 18  S   -0.000208  -0.000000  -0.000095  -0.000000  -0.000207
  134  H 18  S    0.000976  -0.000000   0.000098  -0.000000  -0.000998
  135  H 19  S    0.000057   0.000121  -0.000127   0.000215  -0.000199
  136  H 19  S   -0.000122  -0.000709   0.000790  -0.000363   0.000598
  137  H 20  S    0.000057  -0.000121  -0.000127   0.000215   0.000199
  138  H 20  S   -0.000122   0.000709   0.000790  -0.000363  -0.000598
  139  H 21  S    0.000053   0.000125  -0.000128   0.000060  -0.000062
  140  H 21  S   -0.000031  -0.000855   0.000874  -0.000638   0.000596
  141  H 22  S    0.000053  -0.000125  -0.000128   0.000060   0.000062
  142  H 22  S   -0.000031   0.000855   0.000874  -0.000638  -0.000596
  143  H 23  S    0.000053   0.000125  -0.000128  -0.000060   0.000062
  144  H 23  S   -0.000031  -0.000855   0.000874   0.000638  -0.000596
  145  H 24  S    0.000053  -0.000125  -0.000128  -0.000060  -0.000062
  146  H 24  S   -0.000031   0.000855   0.000874   0.000638   0.000596

                     11         12         13         14         15
                  -11.2408   -11.2408   -11.2401   -11.2401    -1.1890
                     A          A          A          A          A   
    1  C  1  S    0.318605  -0.318745   0.202838  -0.202956  -0.048646
    2  C  1  S    0.008499  -0.008468   0.005850  -0.005862   0.095816
    3  C  1  X   -0.000000   0.000000   0.000000   0.000000   0.000000
    4  C  1  Y   -0.000130   0.000103  -0.000042   0.000045   0.013665
    5  C  1  Z    0.000211  -0.000207   0.000148  -0.000143   0.031350
    6  C  1  S   -0.009169   0.008524  -0.013008   0.013349   0.056321
    7  C  1  X   -0.000000   0.000000   0.000000   0.000000   0.000000
    8  C  1  Y    0.000353  -0.000537   0.000290  -0.000668   0.008371
    9  C  1  Z   -0.002393   0.002114  -0.005114   0.005601   0.002324
   10  C  2  S   -0.000000  -0.012990   0.000000   0.006039  -0.069636
   11  C  2  S   -0.000000  -0.000350   0.000000   0.000157   0.136395
   12  C  2  X   -0.000000   0.000000   0.000000   0.000000   0.000000
   13  C  2  Y    0.000016   0.000000   0.000080   0.000000   0.000000
   14  C  2  Z   -0.000000   0.000035   0.000000  -0.000039  -0.043627
   15  C  2  S   -0.000000   0.000668   0.000000   0.004147   0.094268
   16  C  2  X   -0.000000   0.000000   0.000000   0.000000   0.000000
   17  C  2  Y    0.000808   0.000000  -0.000806   0.000000   0.000000
   18  C  2  Z   -0.000000   0.000020  -0.000000  -0.001697  -0.007842
   19  C  3  S    0.318605  -0.318745  -0.202838   0.202956  -0.048646
   20  C  3  S    0.008499  -0.008468  -0.005850   0.005862   0.095816
   21  C  3  X   -0.000000   0.000000   0.000000   0.000000   0.000000
   22  C  3  Y   -0.000130   0.000103   0.000042  -0.000045   0.013665
   23  C  3  Z   -0.000211   0.000207   0.000148  -0.000143  -0.031350
   24  C  3  S   -0.009169   0.008524   0.013008  -0.013349   0.056321
   25  C  3  X   -0.000000   0.000000   0.000000   0.000000   0.000000
   26  C  3  Y    0.000353  -0.000537  -0.000290   0.000668   0.008371
   27  C  3  Z    0.002393  -0.002114  -0.005114   0.005601  -0.002324
   28  C  4  S   -0.000000  -0.012990  -0.000000  -0.006039  -0.069636
   29  C  4  S   -0.000000  -0.000350   0.000000  -0.000157   0.136395
   30  C  4  X   -0.000000   0.000000   0.000000   0.000000   0.000000
   31  C  4  Y    0.000016   0.000000  -0.000080   0.000000   0.000000
   32  C  4  Z   -0.000000  -0.000035   0.000000  -0.000039   0.043627
   33  C  4  S   -0.000000   0.000668  -0.000000  -0.004147   0.094268
   34  C  4  X   -0.000000   0.000000   0.000000   0.000000   0.000000
   35  C  4  Y    0.000808   0.000000   0.000806   0.000000   0.000000
   36  C  4  Z   -0.000000  -0.000020  -0.000000  -0.001697   0.007842
   37  C  5  S   -0.382683   0.382420  -0.455061   0.454980  -0.037654
   38  C  5  S   -0.009678   0.009665  -0.012373   0.012368   0.074055
   39  C  5  X   -0.000000   0.000000   0.000000   0.000000   0.000000
   40  C  5  Y   -0.000183   0.000192  -0.000247   0.000234   0.027302
   41  C  5  Z   -0.000048   0.000034  -0.000149   0.000155   0.009325
   42  C  5  S    0.006694  -0.006598   0.017582  -0.017996   0.046852
   43  C  5  X   -0.000000   0.000000   0.000000   0.000000   0.000000
   44  C  5  Y    0.001909  -0.001825   0.005467  -0.005678   0.002859
   45  C  5  Z   -0.000475   0.000520   0.003711  -0.003586  -0.001230
   46  C  6  S    0.014957   0.015737  -0.009409  -0.009840  -0.083701
   47  C  6  S    0.000640   0.000704  -0.000611  -0.000616   0.167569
   48  C  6  X   -0.000000   0.000000   0.000000   0.000000   0.000000
   49  C  6  Y    0.000064   0.000016  -0.000086  -0.000092  -0.012605
   50  C  6  Z    0.000041   0.000005  -0.000034  -0.000013  -0.017577
   51  C  6  S   -0.003384  -0.002777   0.005965   0.005041   0.081522
   52  C  6  X   -0.000000   0.000000   0.000000   0.000000   0.000000
   53  C  6  Y   -0.001450  -0.000951   0.004019   0.005391   0.001606
   54  C  6  Z   -0.000889  -0.000460   0.000460  -0.000913  -0.009449
   55  C  7  S   -0.382683   0.382420   0.455061  -0.454980  -0.037654
   56  C  7  S   -0.009678   0.009665   0.012373  -0.012368   0.074055
   57  C  7  X   -0.000000   0.000000   0.000000   0.000000   0.000000
   58  C  7  Y   -0.000183   0.000192   0.000247  -0.000234   0.027302
   59  C  7  Z    0.000048  -0.000034  -0.000149   0.000155  -0.009325
   60  C  7  S    0.006694  -0.006598  -0.017582   0.017996   0.046852
   61  C  7  X   -0.000000   0.000000   0.000000   0.000000   0.000000
   62  C  7  Y    0.001909  -0.001825  -0.005467   0.005678   0.002859
   63  C  7  Z    0.000475  -0.000520   0.003711  -0.003586   0.001230
   64  C  8  S    0.014957   0.015737   0.009409   0.009840  -0.083701
   65  C  8  S    0.000640   0.000704   0.000611   0.000616   0.167569
   66  C  8  X   -0.000000   0.000000   0.000000   0.000000   0.000000
   67  C  8  Y    0.000064   0.000016   0.000086   0.000092  -0.012605
   68  C  8  Z   -0.000041  -0.000005  -0.000034  -0.000013   0.017577
   69  C  8  S   -0.003384  -0.002777  -0.005965  -0.005041   0.081522
   70  C  8  X   -0.000000   0.000000   0.000000   0.000000   0.000000
   71  C  8  Y   -0.001450  -0.000951  -0.004019  -0.005391   0.001606
   72  C  8  Z    0.000889   0.000460   0.000460  -0.000913   0.009449
   73  C  9  S   -0.014957   0.015737   0.009409  -0.009840  -0.083701
   74  C  9  S   -0.000640   0.000704   0.000611  -0.000616   0.167569
   75  C  9  X   -0.000000   0.000000   0.000000   0.000000   0.000000
   76  C  9  Y    0.000064  -0.000016  -0.000086   0.000092   0.012605
   77  C  9  Z   -0.000041   0.000005   0.000034  -0.000013  -0.017577
   78  C  9  S    0.003384  -0.002777  -0.005965   0.005041   0.081522
   79  C  9  X   -0.000000   0.000000   0.000000   0.000000   0.000000
   80  C  9  Y   -0.001450   0.000951   0.004019  -0.005391  -0.001606
   81  C  9  Z    0.000889  -0.000460  -0.000460  -0.000913  -0.009449
   82  C 10  S   -0.014957   0.015737  -0.009409   0.009840  -0.083701
   83  C 10  S   -0.000640   0.000704  -0.000611   0.000616   0.167569
   84  C 10  X   -0.000000   0.000000   0.000000   0.000000   0.000000
   85  C 10  Y    0.000064  -0.000016   0.000086  -0.000092   0.012605
   86  C 10  Z    0.000041  -0.000005   0.000034  -0.000013   0.017577
   87  C 10  S    0.003384  -0.002777   0.005965  -0.005041   0.081522
   88  C 10  X   -0.000000   0.000000   0.000000   0.000000   0.000000
   89  C 10  Y   -0.001450   0.000951  -0.004019   0.005391  -0.001606
   90  C 10  Z   -0.000889   0.000460  -0.000460  -0.000913   0.009449
   91  C 11  S    0.382683   0.382420  -0.455061  -0.454980  -0.037654
   92  C 11  S    0.009678   0.009665  -0.012373  -0.012368   0.074055
   93  C 11  X   -0.000000   0.000000   0.000000   0.000000   0.000000
   94  C 11  Y   -0.000183  -0.000192   0.000247   0.000234  -0.027302
   95  C 11  Z   -0.000048  -0.000034   0.000149   0.000155  -0.009325
   96  C 11  S   -0.006694  -0.006598   0.017582   0.017996   0.046852
   97  C 11  X   -0.000000   0.000000   0.000000   0.000000   0.000000
   98  C 11  Y    0.001909   0.001825  -0.005467  -0.005678  -0.002859
   99  C 11  Z   -0.000475  -0.000520  -0.003711  -0.003586   0.001230
  100  C 12  S    0.382683   0.382420   0.455061   0.454980  -0.037654
  101  C 12  S    0.009678   0.009665   0.012373   0.012368   0.074055
  102  C 12  X   -0.000000   0.000000   0.000000   0.000000   0.000000
  103  C 12  Y   -0.000183  -0.000192  -0.000247  -0.000234  -0.027302
  104  C 12  Z    0.000048   0.000034   0.000149   0.000155   0.009325
  105  C 12  S   -0.006694  -0.006598  -0.017582  -0.017996   0.046852
  106  C 12  X   -0.000000   0.000000   0.000000   0.000000   0.000000
  107  C 12  Y    0.001909   0.001825   0.005467   0.005678  -0.002859
  108  C 12  Z    0.000475   0.000520  -0.003711  -0.003586  -0.001230
  109  C 13  S   -0.318605  -0.318745   0.202838   0.202956  -0.048646
  110  C 13  S   -0.008499  -0.008468   0.005850   0.005862   0.095816
  111  C 13  X   -0.000000   0.000000   0.000000   0.000000   0.000000
  112  C 13  Y   -0.000130  -0.000103   0.000042   0.000045  -0.013665
  113  C 13  Z    0.000211   0.000207  -0.000148  -0.000143  -0.031350
  114  C 13  S    0.009169   0.008524  -0.013008  -0.013349   0.056321
  115  C 13  X   -0.000000   0.000000   0.000000   0.000000   0.000000
  116  C 13  Y    0.000353   0.000537  -0.000290  -0.000668  -0.008371
  117  C 13  Z   -0.002393  -0.002114   0.005114   0.005601  -0.002324
  118  C 14  S   -0.318605  -0.318745  -0.202838  -0.202956  -0.048646
  119  C 14  S   -0.008499  -0.008468  -0.005850  -0.005862   0.095816
  120  C 14  X   -0.000000   0.000000   0.000000   0.000000   0.000000
  121  C 14  Y   -0.000130  -0.000103  -0.000042  -0.000045  -0.013665
  122  C 14  Z   -0.000211  -0.000207  -0.000148  -0.000143   0.031350
  123  C 14  S    0.009169   0.008524   0.013008   0.013349   0.056321
  124  C 14  X   -0.000000   0.000000   0.000000   0.000000   0.000000
  125  C 14  Y    0.000353   0.000537   0.000290   0.000668  -0.008371
  126  C 14  Z    0.002393   0.002114   0.005114   0.005601   0.002324
  127  H 15  S    0.000083   0.000080   0.000097   0.000133   0.018483
  128  H 15  S   -0.000272  -0.000331   0.000481   0.000651   0.001764
  129  H 16  S   -0.000083   0.000080   0.000097  -0.000133   0.018483
  130  H 16  S    0.000272  -0.000331   0.000481  -0.000651   0.001764
  131  H 17  S   -0.000000  -0.000035   0.000000  -0.000069   0.026767
  132  H 17  S   -0.000000   0.000020   0.000000  -0.000240   0.002757
  133  H 18  S   -0.000000  -0.000035   0.000000   0.000069   0.026767
  134  H 18  S   -0.000000   0.000020   0.000000   0.000240   0.002757
  135  H 19  S    0.000083   0.000080  -0.000097  -0.000133   0.018483
  136  H 19  S   -0.000272  -0.000331  -0.000481  -0.000651   0.001764
  137  H 20  S   -0.000083   0.000080  -0.000097   0.000133   0.018483
  138  H 20  S    0.000272  -0.000331  -0.000481   0.000651   0.001764
  139  H 21  S   -0.000151  -0.000144   0.000211   0.000205   0.012869
  140  H 21  S    0.000513   0.000534   0.000351   0.000358   0.000192
  141  H 22  S    0.000151  -0.000144   0.000211  -0.000205   0.012869
  142  H 22  S   -0.000513   0.000534   0.000351  -0.000358   0.000192
  143  H 23  S   -0.000151  -0.000144  -0.000211  -0.000205   0.012869
  144  H 23  S    0.000513   0.000534  -0.000351  -0.000358   0.000192
  145  H 24  S    0.000151  -0.000144  -0.000211   0.000205   0.012869
  146  H 24  S   -0.000513   0.000534  -0.000351   0.000358   0.000192

                     16         17         18         19         20
                   -1.1495    -1.0876    -1.0659    -1.0248    -1.0070
                     A          A          A          A          A   
    1  C  1  S   -0.067069  -0.043920  -0.062594   0.089772   0.002261
    2  C  1  S    0.132722   0.087486   0.125276  -0.181458  -0.005466
    3  C  1  X    0.000000  -0.000000  -0.000000   0.000000   0.000000
    4  C  1  Y   -0.004815  -0.054675   0.019253   0.004660  -0.087796
    5  C  1  Z    0.043728   0.029776   0.015581  -0.022996   0.001595
    6  C  1  S    0.080229   0.044519   0.086041  -0.115603  -0.003735
    7  C  1  X    0.000000  -0.000000  -0.000000   0.000000   0.000000
    8  C  1  Y    0.003711  -0.006930  -0.000072  -0.000465  -0.014563
    9  C  1  Z    0.000112  -0.006627   0.003829   0.013953   0.004752
   10  C  2  S    0.000000   0.063395   0.092888   0.000000   0.000000
   11  C  2  S    0.000000  -0.128008  -0.185798   0.000000   0.000000
   12  C  2  X    0.000000  -0.000000  -0.000000   0.000000   0.000000
   13  C  2  Y   -0.046996  -0.000000  -0.000000  -0.062183   0.095167
   14  C  2  Z    0.000000   0.039751   0.022307   0.000000   0.000000
   15  C  2  S    0.000000  -0.057719  -0.129445   0.000000   0.000000
   16  C  2  X    0.000000  -0.000000  -0.000000   0.000000   0.000000
   17  C  2  Y   -0.015502  -0.000000  -0.000000  -0.016084   0.019636
   18  C  2  Z    0.000000  -0.017614   0.006395   0.000000   0.000000
   19  C  3  S   -0.067069  -0.043920   0.062594  -0.089772   0.002261
   20  C  3  S    0.132722   0.087486  -0.125276   0.181458  -0.005466
   21  C  3  X    0.000000  -0.000000  -0.000000   0.000000   0.000000
   22  C  3  Y   -0.004815  -0.054675  -0.019253  -0.004660  -0.087796
   23  C  3  Z   -0.043728  -0.029776   0.015581  -0.022996  -0.001595
   24  C  3  S    0.080229   0.044519  -0.086041   0.115603  -0.003735
   25  C  3  X    0.000000  -0.000000  -0.000000   0.000000   0.000000
   26  C  3  Y    0.003711  -0.006930   0.000072   0.000465  -0.014563
   27  C  3  Z   -0.000112   0.006627   0.003829   0.013953  -0.004752
   28  C  4  S    0.000000   0.063395  -0.092888   0.000000   0.000000
   29  C  4  S    0.000000  -0.128008   0.185798   0.000000   0.000000
   30  C  4  X    0.000000  -0.000000  -0.000000   0.000000   0.000000
   31  C  4  Y   -0.046996  -0.000000  -0.000000   0.062183   0.095167
   32  C  4  Z    0.000000  -0.039751   0.022307   0.000000   0.000000
   33  C  4  S    0.000000  -0.057719   0.129445   0.000000   0.000000
   34  C  4  X    0.000000  -0.000000  -0.000000   0.000000   0.000000
   35  C  4  Y   -0.015502  -0.000000  -0.000000   0.016084   0.019636
   36  C  4  Z    0.000000   0.017614   0.006395   0.000000   0.000000
   37  C  5  S   -0.068195  -0.083558  -0.025924   0.047551  -0.075893
   38  C  5  S    0.134654   0.165891   0.051981  -0.094384   0.152784
   39  C  5  X    0.000000  -0.000000  -0.000000   0.000000   0.000000
   40  C  5  Y    0.041298   0.031330   0.028632  -0.047531  -0.003677
   41  C  5  Z    0.019142   0.029701  -0.030197   0.056326   0.039554
   42  C  5  S    0.084158   0.113438   0.031456  -0.084416   0.109687
   43  C  5  X    0.000000  -0.000000  -0.000000   0.000000   0.000000
   44  C  5  Y    0.005432   0.006208  -0.002342  -0.006589  -0.004644
   45  C  5  Z    0.002420   0.005177  -0.003416   0.002353   0.004966
   46  C  6  S    0.060668   0.036553   0.063142   0.045883  -0.082202
   47  C  6  S   -0.121716  -0.073267  -0.129027  -0.092755   0.167889
   48  C  6  X    0.000000  -0.000000  -0.000000   0.000000   0.000000
   49  C  6  Y   -0.036420   0.071560   0.014891  -0.038608   0.000250
   50  C  6  Z    0.014499   0.009904  -0.074049  -0.055084  -0.033602
   51  C  6  S   -0.061265  -0.053309  -0.070502  -0.075723   0.115337
   52  C  6  X    0.000000  -0.000000  -0.000000   0.000000   0.000000
   53  C  6  Y   -0.010795   0.028843  -0.002151  -0.026652   0.001981
   54  C  6  Z    0.011014   0.002933  -0.020654   0.000561  -0.010889
   55  C  7  S   -0.068195  -0.083558   0.025924  -0.047551  -0.075893
   56  C  7  S    0.134654   0.165891  -0.051981   0.094384   0.152784
   57  C  7  X    0.000000  -0.000000  -0.000000   0.000000   0.000000
   58  C  7  Y    0.041298   0.031330  -0.028632   0.047531  -0.003677
   59  C  7  Z   -0.019142  -0.029701  -0.030197   0.056326  -0.039554
   60  C  7  S    0.084158   0.113438  -0.031456   0.084416   0.109687
   61  C  7  X    0.000000  -0.000000  -0.000000   0.000000   0.000000
   62  C  7  Y    0.005432   0.006208   0.002342   0.006589  -0.004644
   63  C  7  Z   -0.002420  -0.005177  -0.003416   0.002353  -0.004966
   64  C  8  S    0.060668   0.036553  -0.063142  -0.045883  -0.082202
   65  C  8  S   -0.121716  -0.073267   0.129027   0.092755   0.167889
   66  C  8  X    0.000000  -0.000000  -0.000000   0.000000   0.000000
   67  C  8  Y   -0.036420   0.071560  -0.014891   0.038608   0.000250
   68  C  8  Z   -0.014499  -0.009904  -0.074049  -0.055084   0.033602
   69  C  8  S   -0.061265  -0.053309   0.070502   0.075723   0.115337
   70  C  8  X    0.000000  -0.000000  -0.000000   0.000000   0.000000
   71  C  8  Y   -0.010795   0.028843   0.002151   0.026652   0.001981
   72  C  8  Z   -0.011014  -0.002933  -0.020654   0.000561   0.010889
   73  C  9  S   -0.060668   0.036553   0.063142  -0.045883   0.082202
[...]
   11             0.102639   0.051117   0.292715   0.034350   0.109538
   12             0.102639   0.051117   0.292715   0.034350   0.109538
   13             0.130093   0.078939   0.070448   0.155928   0.324873
   14             0.130093   0.078939   0.070448   0.155928   0.324873
   15             0.000462   0.063358   0.000000   0.000000   0.000000
   16             0.000462   0.063358   0.000000   0.000000   0.000000
   17             0.000000   0.108908   0.000000   0.000000   0.000000
   18             0.000000   0.108908   0.000000   0.000000   0.000000
   19             0.000462   0.063358   0.000000   0.000000   0.000000
   20             0.000462   0.063358   0.000000   0.000000   0.000000
   21             0.062343   0.014074   0.000000   0.000000   0.000000
   22             0.062343   0.014074   0.000000   0.000000   0.000000
   23             0.062343   0.014074   0.000000   0.000000   0.000000
   24             0.062343   0.014074   0.000000   0.000000   0.000000

                     46         47

                  2.000000   2.000000

    1            -0.000232   0.180612
    2             0.000000   0.354454
    3            -0.000232   0.180612
    4             0.000000   0.354454
    5             0.196985   0.116591
    6             0.303247   0.025570
    7             0.196985   0.116591
    8             0.303247   0.025570
    9             0.303247   0.025570
   10             0.303247   0.025570
   11             0.196985   0.116591
   12             0.196985   0.116591
   13            -0.000232   0.180612
   14            -0.000232   0.180612
   15             0.000000   0.000000
   16             0.000000   0.000000
   17             0.000000   0.000000
   18             0.000000   0.000000
   19             0.000000   0.000000
   20             0.000000   0.000000
   21             0.000000   0.000000
   22             0.000000   0.000000
   23             0.000000   0.000000
   24             0.000000   0.000000

               ----- POPULATIONS IN EACH AO -----
                             MULLIKEN      LOWDIN
              1  C  1  S      1.99775     1.98907
              2  C  1  S      0.69937     0.55080
              3  C  1  X      0.52579     0.49172
              4  C  1  Y      0.75638     0.70481
              5  C  1  Z      0.73378     0.66745
              6  C  1  S      0.43344     0.39515
              7  C  1  X      0.47570     0.51128
              8  C  1  Y      0.15517     0.36380
              9  C  1  Z      0.38149     0.43488
             10  C  2  S      1.99776     1.98890
             11  C  2  S      0.70066     0.55107
             12  C  2  X      0.52963     0.49847
             13  C  2  Y      0.75830     0.70642
             14  C  2  Z      0.72952     0.66375
             15  C  2  S      0.39592     0.38973
             16  C  2  X      0.48060     0.51693
             17  C  2  Y      0.17464     0.35538
             18  C  2  Z      0.41125     0.43603
             19  C  3  S      1.99775     1.98907
             20  C  3  S      0.69937     0.55080
             21  C  3  X      0.52579     0.49172
             22  C  3  Y      0.75638     0.70481
             23  C  3  Z      0.73378     0.66745
             24  C  3  S      0.43344     0.39515
             25  C  3  X      0.47570     0.51128
             26  C  3  Y      0.15517     0.36380
             27  C  3  Z      0.38149     0.43488
             28  C  4  S      1.99776     1.98890
             29  C  4  S      0.70066     0.55107
             30  C  4  X      0.52963     0.49847
             31  C  4  Y      0.75830     0.70642
             32  C  4  Z      0.72952     0.66375
             33  C  4  S      0.39592     0.38973
             34  C  4  X      0.48060     0.51693
             35  C  4  Y      0.17464     0.35538
             36  C  4  Z      0.41125     0.43603
             37  C  5  S      1.99776     1.98917
             38  C  5  S      0.69621     0.54942
             39  C  5  X      0.52262     0.48756
             40  C  5  Y      0.75102     0.68748
             41  C  5  Z      0.74269     0.68778
             42  C  5  S      0.49226     0.40007
             43  C  5  X      0.48180     0.51664
             44  C  5  Y      0.32475     0.41746
             45  C  5  Z      0.20365     0.38973
             46  C  6  S      1.99778     1.98815
             47  C  6  S      0.70031     0.54004
             48  C  6  X      0.53001     0.48736
             49  C  6  Y      0.75990     0.70473
             50  C  6  Z      0.74152     0.69189
             51  C  6  S      0.43097     0.36438
             52  C  6  X      0.45896     0.49775
             53  C  6  Y      0.28381     0.37160
             54  C  6  Z      0.15864     0.37701
             55  C  7  S      1.99776     1.98917
             56  C  7  S      0.69621     0.54942
             57  C  7  X      0.52262     0.48756
             58  C  7  Y      0.75102     0.68748
             59  C  7  Z      0.74269     0.68778
             60  C  7  S      0.49226     0.40007
             61  C  7  X      0.48180     0.51664
             62  C  7  Y      0.32475     0.41746
             63  C  7  Z      0.20365     0.38973
             64  C  8  S      1.99778     1.98815
             65  C  8  S      0.70031     0.54004
             66  C  8  X      0.53001     0.48736
             67  C  8  Y      0.75990     0.70473
             68  C  8  Z      0.74152     0.69189
             69  C  8  S      0.43097     0.36438
             70  C  8  X      0.45896     0.49775
             71  C  8  Y      0.28381     0.37160
             72  C  8  Z      0.15864     0.37701
             73  C  9  S      1.99778     1.98815
             74  C  9  S      0.70031     0.54004
             75  C  9  X      0.53001     0.48736
             76  C  9  Y      0.75990     0.70473
             77  C  9  Z      0.74152     0.69189
             78  C  9  S      0.43097     0.36438
             79  C  9  X      0.45896     0.49775
             80  C  9  Y      0.28381     0.37160
             81  C  9  Z      0.15864     0.37701
             82  C 10  S      1.99778     1.98815
             83  C 10  S      0.70031     0.54004
             84  C 10  X      0.53001     0.48736
             85  C 10  Y      0.75990     0.70473
             86  C 10  Z      0.74152     0.69189
             87  C 10  S      0.43097     0.36438
             88  C 10  X      0.45896     0.49775
             89  C 10  Y      0.28381     0.37160
             90  C 10  Z      0.15864     0.37701
             91  C 11  S      1.99776     1.98917
             92  C 11  S      0.69621     0.54942
             93  C 11  X      0.52262     0.48756
             94  C 11  Y      0.75102     0.68748
             95  C 11  Z      0.74269     0.68778
             96  C 11  S      0.49226     0.40007
             97  C 11  X      0.48180     0.51664
             98  C 11  Y      0.32475     0.41746
             99  C 11  Z      0.20365     0.38973
            100  C 12  S      1.99776     1.98917
            101  C 12  S      0.69621     0.54942
            102  C 12  X      0.52262     0.48756
            103  C 12  Y      0.75102     0.68748
            104  C 12  Z      0.74269     0.68778
            105  C 12  S      0.49226     0.40007
            106  C 12  X      0.48180     0.51664
            107  C 12  Y      0.32475     0.41746
            108  C 12  Z      0.20365     0.38973
            109  C 13  S      1.99775     1.98907
            110  C 13  S      0.69937     0.55080
            111  C 13  X      0.52579     0.49172
            112  C 13  Y      0.75638     0.70481
            113  C 13  Z      0.73378     0.66745
            114  C 13  S      0.43344     0.39515
            115  C 13  X      0.47570     0.51128
            116  C 13  Y      0.15517     0.36380
            117  C 13  Z      0.38149     0.43488
            118  C 14  S      1.99775     1.98907
            119  C 14  S      0.69937     0.55080
            120  C 14  X      0.52579     0.49172
            121  C 14  Y      0.75638     0.70481
            122  C 14  Z      0.73378     0.66745
            123  C 14  S      0.43344     0.39515
            124  C 14  X      0.47570     0.51128
            125  C 14  Y      0.15517     0.36380
            126  C 14  Z      0.38149     0.43488
            127  H 15  S      0.53520     0.51430
            128  H 15  S      0.25399     0.36160
            129  H 16  S      0.53520     0.51430
            130  H 16  S      0.25399     0.36160
            131  H 17  S      0.53452     0.51396
            132  H 17  S      0.24670     0.36267
            133  H 18  S      0.53452     0.51396
            134  H 18  S      0.24670     0.36267
            135  H 19  S      0.53520     0.51430
            136  H 19  S      0.25399     0.36160
            137  H 20  S      0.53520     0.51430
            138  H 20  S      0.25399     0.36160
            139  H 21  S      0.53598     0.51476
            140  H 21  S      0.26155     0.36051
            141  H 22  S      0.53598     0.51476
            142  H 22  S      0.26155     0.36051
            143  H 23  S      0.53598     0.51476
            144  H 23  S      0.26155     0.36051
            145  H 24  S      0.53598     0.51476
            146  H 24  S      0.26155     0.36051

          ----- MULLIKEN ATOMIC OVERLAP POPULATIONS -----
          (OFF-DIAGONAL ELEMENTS NEED TO BE MULTIPLIED BY 2)

             1           2           3           4           5

    1    4.9628790
    2    0.0079360   5.0141486
    3   -0.0408526  -0.0287773   4.9628790
    4   -0.0287773  -0.0672764   0.0079360   5.0141486
    5    0.5671637  -0.0003263  -0.0578353   0.0033659   5.0033379
    6   -0.0002844   0.4761523   0.0035884  -0.0279215   0.0000847
    7   -0.0578353   0.0033659   0.5671637  -0.0003263   0.4425027
    8    0.0035884  -0.0279215  -0.0002844   0.4761523  -0.0003368
    9   -0.0272526   0.4761523   0.4152828  -0.0279215  -0.0238538
   10    0.4152828  -0.0279215  -0.0272526   0.4761523  -0.0519422
   11    0.0000003   0.0033659   0.0000014  -0.0003263  -0.0000000
   12    0.0000014  -0.0003263   0.0000003   0.0033659   0.0000000
   13   -0.0000148  -0.0287773  -0.0000760   0.0079360   0.0000003
   14   -0.0000760   0.0079360  -0.0000148  -0.0287773   0.0000014
   15    0.0000016  -0.0001409  -0.0000000   0.0032763   0.0000000
   16    0.0002947   0.0032763   0.3714369  -0.0001409   0.0020123
   17    0.0033725   0.0006577  -0.0001693   0.3638417   0.0001492
   18   -0.0001693   0.3638417   0.0033725   0.0006577   0.0000224
   19   -0.0000000   0.0032763   0.0000016  -0.0001409   0.0000000
   20    0.3714369  -0.0001409   0.0002947   0.0032763  -0.0189604
   21    0.0000000  -0.0001041  -0.0000000  -0.0000036  -0.0000000
   22   -0.0201458  -0.0000036   0.0023127  -0.0001041   0.3718810
   23   -0.0000000  -0.0000036   0.0000000  -0.0001041   0.0000000
   24    0.0023127  -0.0001041  -0.0201458  -0.0000036  -0.0245026

             6           7           8           9          10

    6    4.9691950
    7   -0.0003368   5.0033379
    8    0.4544214   0.0000847   4.9691950
    9   -0.0453084  -0.0519422  -0.0243243   4.9691950
   10   -0.0243243  -0.0238538  -0.0453084   0.4544214   4.9691950
   11   -0.0519422   0.0000000  -0.0238538  -0.0003368   0.0000847
   12   -0.0238538  -0.0000000  -0.0519422   0.0000847  -0.0003368
   13    0.4152828   0.0000014  -0.0272526   0.0035884  -0.0002844
   14   -0.0272526   0.0000003   0.4152828  -0.0002844   0.0035884
   15    0.0012736   0.0000000  -0.0342173   0.0000111   0.0001700
   16    0.0001700  -0.0189604   0.0000111  -0.0342173   0.0012736
   17    0.0010260   0.0000224  -0.0260529   0.0010260  -0.0260529
   18   -0.0260529   0.0001492   0.0010260  -0.0260529   0.0010260
   19   -0.0342173   0.0000000   0.0012736   0.0001700   0.0000111
   20    0.0000111   0.0020123   0.0001700   0.0012736  -0.0342173
   21    0.0019351   0.0000000   0.0002542   0.0000019   0.0000000
   22    0.0000000  -0.0245026   0.0000019   0.0002542   0.0019351
   23    0.0002542  -0.0000000   0.0019351   0.0000000   0.0000019
   24    0.0000019   0.3718810   0.0000000   0.0019351   0.0002542

            11          12          13          14          15

   11    5.0033379
   12    0.4425027   5.0033379
   13    0.5671637  -0.0578353   4.9628790
   14   -0.0578353   0.5671637  -0.0408526   4.9628790
   15    0.0020123  -0.0189604   0.0002947   0.3714369   0.4615830
   16    0.0000000   0.0000000   0.0000016  -0.0000000   0.0000000
   17    0.0000224   0.0001492  -0.0001693   0.0033725   0.0027043
   18    0.0001492   0.0000224   0.0033725  -0.0001693   0.0000011
   19   -0.0189604   0.0020123   0.3714369   0.0002947   0.0000094
   20    0.0000000   0.0000000  -0.0000000   0.0000016   0.0000015
   21    0.3718810  -0.0245026  -0.0201458   0.0023127  -0.0001067
   22   -0.0000000   0.0000000   0.0000000  -0.0000000   0.0000000
   23   -0.0245026   0.3718810   0.0023127  -0.0201458  -0.0001613
   24    0.0000000  -0.0000000  -0.0000000   0.0000000  -0.0000000

            16          17          18          19          20

   16    0.4615830
   17    0.0000011   0.4546100
   18    0.0027043   0.0000141   0.4546100
   19    0.0000015   0.0000011   0.0027043   0.4615830
   20    0.0000094   0.0027043   0.0000011   0.0000000   0.4615830
   21    0.0000000  -0.0000000  -0.0000056  -0.0001613  -0.0000000
   22   -0.0001067  -0.0000056  -0.0000000  -0.0000000  -0.0001613
   23   -0.0000000  -0.0000056  -0.0000000  -0.0001067   0.0000000
   24   -0.0001613  -0.0000000  -0.0000056   0.0000000  -0.0001067

            21          22          23          24

   21    0.4662129
   22    0.0000000   0.4662129
   23   -0.0000377  -0.0000000   0.4662129
   24   -0.0000000  -0.0000377   0.0000000   0.4662129

          TOTAL MULLIKEN AND LOWDIN ATOMIC POPULATIONS
       ATOM         MULL.POP.    CHARGE          LOW.POP.     CHARGE
    1 C             6.158862   -0.158862         6.108968   -0.108968
    2 C             6.178285   -0.178285         6.106675   -0.106675
    3 C             6.158862   -0.158862         6.108968   -0.108968
    4 C             6.178285   -0.178285         6.106675   -0.106675
    5 C             6.212764   -0.212764         6.125308   -0.125308
    6 C             6.061902   -0.061902         6.022905   -0.022905
    7 C             6.212764   -0.212764         6.125308   -0.125308
    8 C             6.061902   -0.061902         6.022905   -0.022905
    9 C             6.061902   -0.061902         6.022905   -0.022905
   10 C             6.061902   -0.061902         6.022905   -0.022905
   11 C             6.212764   -0.212764         6.125308   -0.125308
   12 C             6.212764   -0.212764         6.125308   -0.125308
   13 C             6.158862   -0.158862         6.108968   -0.108968
   14 C             6.158862   -0.158862         6.108968   -0.108968
   15 H             0.789189    0.210811         0.875901    0.124099
   16 H             0.789189    0.210811         0.875901    0.124099
   17 H             0.781219    0.218781         0.876621    0.123379
   18 H             0.781219    0.218781         0.876621    0.123379
   19 H             0.789189    0.210811         0.875901    0.124099
   20 H             0.789189    0.210811         0.875901    0.124099
   21 H             0.797530    0.202470         0.875270    0.124730
   22 H             0.797530    0.202470         0.875270    0.124730
   23 H             0.797530    0.202470         0.875270    0.124730
   24 H             0.797530    0.202470         0.875270    0.124730

          -------------------------------
          BOND ORDER AND VALENCE ANALYSIS     BOND ORDER THRESHOLD=0.050
          -------------------------------

                   BOND                       BOND                       BOND
  ATOM PAIR DIST  ORDER      ATOM PAIR DIST  ORDER      ATOM PAIR DIST  ORDER
    1   3  2.809  0.096        1   5  1.367  1.669        1  10  1.429  1.200
    1  20  1.086  0.936        2   4  2.802  0.110        2   6  1.398  1.407
    2   9  1.398  1.407        2  18  1.087  0.926        3   7  1.367  1.669
    3   9  1.429  1.200        3  16  1.086  0.936        4   8  1.398  1.407
    4  10  1.398  1.407        4  17  1.087  0.926        5   7  1.425  1.223
    5  22  1.085  0.941        6   8  1.443  1.261        6  13  1.429  1.200
    7  24  1.085  0.941        8  14  1.429  1.200        9  10  1.443  1.261
   11  12  1.425  1.223       11  13  1.367  1.669       11  21  1.085  0.941
   12  14  1.367  1.669       12  23  1.085  0.941       13  14  2.809  0.096
   13  19  1.086  0.936       14  15  1.086  0.936

                       TOTAL       BONDED        FREE
      ATOM            VALENCE     VALENCE     VALENCE
    1 C                 3.881       3.881       0.000
    2 C                 3.922       3.922       0.000
    3 C                 3.881       3.881       0.000
    4 C                 3.922       3.922       0.000
    5 C                 3.864       3.864      -0.000
    6 C                 3.889       3.889      -0.000
    7 C                 3.864       3.864      -0.000
    8 C                 3.889       3.889      -0.000
    9 C                 3.889       3.889       0.000
   10 C                 3.889       3.889       0.000
   11 C                 3.864       3.864      -0.000
   12 C                 3.864       3.864      -0.000
   13 C                 3.881       3.881       0.000
   14 C                 3.881       3.881      -0.000
   15 H                 0.928       0.928       0.000
   16 H                 0.928       0.928      -0.000
   17 H                 0.925       0.925       0.000
   18 H                 0.925       0.925       0.000
   19 H                 0.928       0.928       0.000
   20 H                 0.928       0.928      -0.000
   21 H                 0.934       0.934      -0.000
   22 H                 0.934       0.934      -0.000
   23 H                 0.934       0.934      -0.000
   24 H                 0.934       0.934      -0.000

          ---------------------
          ELECTROSTATIC MOMENTS
          ---------------------

 POINT   1           X           Y           Z (BOHR)    CHARGE
                 0.000000   -0.000000    0.000000       -0.00 (A.U.)
         DX          DY          DZ         /D/  (DEBYE)
     0.000000   -0.000000   -0.000000    0.000000
 ...... END OF PROPERTY EVALUATION ......
 STEP CPU TIME = 29770.00 TOTAL CPU TIME =      29774.5 (    496.2 MIN)
 TOTAL WALL CLOCK TIME=      26041.4 SECONDS, CPU UTILIZATION IS   114.34%
               580000  WORDS OF DYNAMIC MEMORY USED
 EXECUTION OF GAMESS TERMINATED NORMALLY 23:30:56 01-MAR-2024    
 DDI: 263640 bytes (0.3 MB / 0 MWords) used by master data server.

 ----------------------------------------
 CPU timing information for all processes
 ========================================
 0: 29478.621 + 295.874 = 29774.495
 ----------------------------------------
 ddikick.x: exited gracefully.
----- accounting info -----
Files used on the master node muhka were:
-rw-r--r-- 1 barrois users  672166 Mar  1 23:30 /scratch/barrois.253741/Antr_IC26_GG.den
-rw-r--r-- 1 barrois users  112904 Mar  1 16:16 /scratch/barrois.253741/Antr_IC26_GG.F05
-rw-r--r-- 1 barrois users 3337440 Mar  1 23:30 /scratch/barrois.253741/Antr_IC26_GG.F10
-rw-r--r-- 1 barrois users   46444 Mar  1 16:16 /scratch/barrois.253741/Antr_IC26_GG.gus
-rw-r--r-- 1 barrois users   46444 Mar  1 23:30 /scratch/barrois.253741/Antr_IC26_GG.orb
-rw-r--r-- 1 barrois users 1146686 Mar  1 23:30 /scratch/barrois.253741/Antr_IC26_GG.xdat
-rw-r--r-- 1 barrois users    7377 Mar  1 16:16 /scratch/barrois.253741/Antr_IC26_GG.xmi
-rw-r--r-- 1 barrois users 1547432 Mar  1 23:30 /scratch/barrois.253741/Antr_IC26_GG.xmo
Fri Mar  1 11:30:59 PM CET 2024
0.0u 0.2s 7:14:04.81 0.0% 0+0k 336+1016io 1pf+0w
