----- GAMESS execution script 'rungms' -----
This job is running on host plana
under operating system Linux at Thu Jun 20 03:01:40 PM CEST 2024
Available scratch disk space (Kbyte units) at beginning of the job is
Filesystem                    1K-blocks      Used Available Use% Mounted on
/dev/mapper/vg--ctom-scratch 1049889792 331369432 718520360  32% /scratch
GAMESS temporary binary files will be written to /scratch/barrois.258980
GAMESS supplementary output files will be written to /home/barrois/Acene/Benzene
Copying input file ./benzene_cas.inp to your run's scratch directory...

 Distributed Data Interface kickoff program.
 Initiating 1 compute processes on 1 nodes to run the following command:
 /home/humbel/fuming/softwares/gamess/2020-R2/gamess.xmvb.x benzene_cas 

          *******************************************************
          *                                                     *
          *          GAMESS VERSION = 30 SEP 2020 (R2)          *
          *                                                     *
          *              doi.org/10.1063/5.0005188              *
          *                                                     *
          **************** 64 BIT LINUX VERSION *****************

  GAMESS HAS BEEN MADE POSSIBLE WITH IMPORTANT CONTRIBUTIONS FROM
  THE FOLLOWING INDIVIDUALS (IN ALPHABETICAL ORDER):

     IVANA ADAMOVIC, CHRISTINE AIKENS, TOMOKO AKAMA,
     YURI ALEXEEV, YURIKO AOKI, POOJA ARORA, TOSHIO ASADA,
     ANDREY ASADCHEV, KIM K. BALDRIDGE, PRADIPTA BANDYOPADHYAY,
     MARIA BARYSZ, ROB BELL, JONATHAN BENTZ, COLLEEN BERTONI,
     JERRY A. BOATZ, BRETT BODE, KURT BRORSEN, KURT R. BRORSEN,
     LAIMUTIS BYTAUTAS, CALEB CARLIN, LAURA CARRINGTON,
     GALINA CHABAN, BENOIT CHAMPAGNE, WEI CHEN, MAHITO CHIBA,
     DAN CHIPMAN, CHEOL HO CHOI, TANNER CULPITT,
     DIPAYAN DATTA, PAUL DAY, ALBERT DEFUSCO,
     NUWAN DESILVA, J. EMILIANO DEUSTUA,
     TIM DUDLEY, MICHEL DUPUIS, STEVEN T. ELBERT,
     DMITRI FEDOROV, ALEX FINDLATER, GRAHAM FLETCHER,
     MARK FREITAG, CHRISTIAN FRIEDL, DAVID GARMER,
     IGOR S. GERASIMOV, KURT GLAESEMANN, MARK S. GORDON,
     JEFFREY GOUR, FENG LONG GU, EMILIE B. GUIDEZ,
     ANASTASIA GUNINA, SHARON HAMMES-SCHIFFER, MASATAKE HARUTA,
     KIMIHIKO HIRAO, YASUHIRO IKABATA, TZVETELIN IORDANOV,
     STEPHAN IRLE, KAZUYA ISHIMURA, JOE IVANIC, FRANK JENSEN,
     JAN H. JENSEN, VISVALDAS KAIRYS, MUNEAKI KAMIYA,
     MICHIO KATOUDA, NAOAKI KAWAKAMI, DAN KEMP, BERNARD KIRTMAN,
     KAZUO KITAURA, MARIUSZ KLOBUKOWSKI, MASATO KOBAYASHI,
     PRAKASHAN KORAMBATH, JACEK KORCHOWIEC, SHIRO KOSEKI,
     KAROL KOWALSKI, JIMMY KROMANN, STANISLAW KUCHARSKI,
     HENRY KURTZ, SAROM SOK LEANG, HUI LI, SHUHUA LI, WEI LI,
     JESSE LUTZ, ALEKSANDR O. LYKHIN, MARCIN MAKOWSKI,
     JOANI MATO, NIKITA MATSUNAGA, BENEDETTA MENNUCCI,
     GRANT MERRILL, NORIYUKI MINEZAWA, VLADIMIR MIRONOV,
     EISAKU MIYOSHI, JOHN A. MONTGOMERY JR., HIROTOSHI MORI,
     JONATHAN MULLIN, MONIKA MUSIAL, SHIGERU NAGASE,
     TAKESHI NAGATA, HIROMI NAKAI, TAKAHITO NAKAJIMA,
     YUYA NAKAJIMA, HARUYUKI NAKANO, HIROYA NAKATA, SEAN NEDD,
     HEATHER NETZLOFF, KIET A. NGUYEN, YOSHIO NISHIMOTO,
     BOSILJKA NJEGIC, RYAN OLSON, MIKE PAK, ROBERTO PEVERATI,
     BUU PHAM, PIOTR PIECUCH, ANNA POMOGAEVA, DAVID POOLE,
     SPENCER PRUITT, OLIVIER QUINET, LUKE ROSKOP,
     KLAUS RUEDENBERG, ANDREW SAND, TOSAPORN SATTASATHUCHANA,
     NOZOMI SAWADA, MICHAEL W. SCHMIDT, PATRICK E. SCHNEIDER,
     JUNJI SEINO, PRACHI SHARMA, JUN SHEN, JIM SHOEMAKER,
     YINAN SHU, DEJUN SI, JONATHAN SKONE, LYUDMILA SLIPCHENKO,
     TONY SMITH, JIE SONG, MARK SPACKMAN, CASPER STEINMANN,
     WALT STEVENS, PEIFENG SU, SHUJUN SU, CHET SWALINA,
     TETSUYA TAKETSUGU, ZHEN TAO, NANDUN THELLAMUREGE
     SEIKEN TOKURA, JACOPO TOMASI, TSUGUKI TOUMA, TAKAO TSUNEDA,
     HIROAKI UMEDA, JORGE LUIS GALVEZ VALLEJO, YALI WANG,
     SIMON WEBB, AARON WEST, THERESA L. WINDUS, MARTA WLOCH,
     PENG XU, KIYOSHI YAGI, SUSUMU YANAGISAWA, YANG YANG,
     SOOHAENG YOO, TAKESHI YOSHIKAWA, FEDERICO ZAHARIEV,
     TOBY ZENG

  WHO ARE SUPPORTED BY THEIR INSTITUTION/UNIVERSITY/COMPANY/GROUP
  (IN ALPHABETICAL ORDER):

     EP ANALYTICS, FACULTES UNIVERSITAIRES NOTRE-DAME DE LA PAIX,
     INSTITUTE FOR MOLECULAR SCIENCE, IOWA STATE UNIVERSITY,
     JACKSON STATE UNIVERSITY, JOHANNES KEPLER UNIVERSITY LINZ,
     KYUSHU UNIVERSITY, MICHIGAN STATE UNIVERSITY,
     MIE UNIVERSITY, MOSCOW STATE UNIVERSITY,
     N. COPERNICUS UNIVERSITY, NAGOYA UNIVERSITY,
     NANJING UNIVERSITY, NAT. INST. OF ADVANCED INDUSTRIAL
     SCIENCE AND TECHNOLOGY, NATIONAL INST. OF STANDARDS AND
     TECHNOLOGY, NESMEYANOV INSTITUTE OF ORGANOELEMENT COMPOUNDS
     OF RUSSIAN ACADEMY OF SCIENCES, OSAKA PREFECTURE UNIVERSITY,
     PENNSYLVANIA STATE UNIVERSITY, TOKYO INSTITUTE OF TECHNOLOGY,
     UNIVERSITY OF AARHUS, UNIVERSITY OF ALBERTA,
     UNIVERSITY OF CALIFORNIA AT SANTA BARBARA,
     UNIVERSITY OF COPENHAGEN, UNIVERSITY OF IOWA,
     UNIVERSITY OF MEMPHIS, UNIVERSITY OF MINNESOTA,
     UNIVERSITY OF NEBRASKA, UNIVERSITY OF NEW ENGLAND,
     UNIVERSITY OF NOTRE DAME, UNIVERSITY OF PISA,
     UNIVERSITY OF SILESIA, UNIVERSITY OF TOKYO,
     UNIVERSITY OF ZURICH, WASEDA UNIVERSITY, YALE UNIVERSITY

  GAMESS SOFTWARE MANAGEMENT TEAM FOR THIS RELEASE:
     MARK S. GORDON (TEAM LEAD),
     BRETT BODE (SENIOR ADVISOR),
     GIUSEPPE BARCA,
     COLLEEN BERTONI,
     KRISTOPHER KEIPERT (ADVISOR),
     SAROM S. LEANG (DEVELOPMENT LEAD),
     BUU PHAM,
     JORGE LUIS GALVEZ VALLEJO (WEBSITE ADMINISTRATOR),
     PENG XU

 EXECUTION OF GAMESS BEGUN 15:01:40 20-JUN-2024    

            ECHO OF THE FIRST FEW INPUT CARDS -
 INPUT CARD>!   File created by MacMolPlt 7.7.2                                             
 INPUT CARD>! $CONTRL SCFTYP=RHF RUNTYP=ENERGY COORD=UNIQUE  MAXIT=30 MULT=1 $END           
 INPUT CARD> $CONTRL SCFTYP=MCSCF RUNTYP=ENERGY COORD=UNIQUE  MAXIT=30 MULT=1 $END          
 INPUT CARD>! $CONTRL  VBTYP=XMVB                   $END                                    
 INPUT CARD> $SYSTEM TIMLIM=525600 MEMORY=2185666 $END                                      
 INPUT CARD> $MCSCF CISTEP=GUGA MAXIT=200 QUAD=.F. $END                                     
 INPUT CARD> $DRT    GROUP=C1  FORS=.TRUE. NMCC=18 NDOC=3 NVAL=3 $END                       
 INPUT CARD> $GUGDIA NSTATE=2 $END                                                          
 INPUT CARD> $GUGDM2 WSTATE(1)=1.0,0.0 $END                                                 
 INPUT CARD> $BASIS GBASIS=N31 NGAUSS=6 $END                                                
 INPUT CARD> $GUESS GUESS=MOREAD                                                            
 INPUT CARD>  NORB=24                                                                       
 INPUT CARD> $END                                                                           
 INPUT CARD> $SCF DIRSCF=.TRUE. $END                                                        
 INPUT CARD> $DATA                                                                          
 INPUT CARD>anthracene opt C2H gaussian                                                     
 INPUT CARD>C1                                                                              
 INPUT CARD>C  6.0     0.00000      0.00000      0.00000                                    
 INPUT CARD>C  6.0     1.39400      0.00000      0.00000                                    
 INPUT CARD>C  6.0     2.09099      1.20724     -0.00000                                    
 INPUT CARD>C  6.0     1.39398      2.41448     -0.00000                                    
 INPUT CARD>C  6.0    -0.00002      2.41447      0.00000                                    
 INPUT CARD>C  6.0    -0.69701      1.20723      0.00000                                    
 INPUT CARD>H  1.0     1.93675     -0.94007     -0.00000                                    
 INPUT CARD>H  1.0     3.17649      1.20725     -0.00000                                    
 INPUT CARD>H  1.0     1.93672      3.35455     -0.00000                                    
 INPUT CARD>H  1.0    -1.78251      1.20722      0.00000                                    
 INPUT CARD>H  1.0    -0.54278      3.35454      0.00000                                    
 INPUT CARD>H  1.0    -0.54274     -0.94007      0.00000                                    
 INPUT CARD> $END                                                                           
 INPUT CARD> $VEC                                                                           
 INPUT CARD> 1  1-3.63845954E-02 1.39530416E-03-6.85935178E-04-1.23025496E-05 0.00000000E+00
 INPUT CARD> 1  2 2.44063966E-03-2.08815961E-03 7.83124568E-03 0.00000000E+00 5.72391870E-02
 INPUT CARD> 1  3-1.85297374E-04-1.11139308E-04 3.83585062E-04 0.00000000E+00-3.13536612E-03
 INPUT CARD> 1  4-2.27895426E-03-6.86113893E-03 0.00000000E+00 9.27569961E-01 1.80091006E-02
 INPUT CARD> 1  5-7.03656885E-04-5.62932187E-04 0.00000000E+00 1.67088607E-03-7.75367795E-03
 INPUT CARD> 1  6-6.25544687E-03 0.00000000E+00 1.67216032E-01 1.12469181E-03-2.11664883E-03
 INPUT CARD> 1  7-1.61723090E-03 0.00000000E+00 1.40208449E-03 8.21796998E-03 4.09918143E-03
 INPUT CARD> 1  8 0.00000000E+00 2.71175784E-01 6.64111457E-03 9.87319815E-04-2.86033101E-04
 INPUT CARD> 1  9 0.00000000E+00-6.27463547E-03 4.97466010E-03 2.35192747E-04 0.00000000E+00
 INPUT CARD> 1 10 1.59520317E-01 5.33655593E-03-1.09459668E-03-2.50089735E-03 0.00000000E+00
 INPUT CARD> 1 11-3.67473093E-03-7.67787451E-04 1.25233978E-02 0.00000000E+00 2.51772969E-03
 INPUT CARD> 1 12-4.47918906E-03 3.66069416E-03 1.50457673E-03 1.42627647E-03-4.51412635E-03
 INPUT CARD> 1 13 1.81475397E-03-2.64710208E-03 2.34130013E-03 1.05733888E-03 1.56352310E-03
 INPUT CARD> 1 14 4.29373810E-03                                                            
 INPUT CARD> 2  1 2.85516703E-01 1.03174537E-02-5.08476555E-04 1.27520303E-03-0.00000000E+00
 INPUT CARD> 2  2 1.46132266E-02 7.40580966E-03 2.16903854E-02-0.00000000E+00 1.47867009E-02
 INPUT CARD> 2  3 3.49384580E-03 2.19226760E-03 7.93385387E-04-0.00000000E+00-3.06545097E-02
 INPUT CARD> 2  4 2.91270844E-03-2.78066180E-02-0.00000000E+00 9.34159483E-03-6.72657629E-03
 INPUT CARD> 2  5 6.34991616E-04 2.76461910E-04-0.00000000E+00 3.62715695E-02-2.84800035E-02
    2185666 WORDS OF MEMORY AVAILABLE

     BASIS OPTIONS
     -------------
     GBASIS=N31          IGAUSS=       6      POLAR=NONE    
     NDFUNC=       0     NFFUNC=       0     DIFFSP=       F
     NPFUNC=       0      DIFFS=       F     BASNAM=        


     RUN TITLE
     ---------
 anthracene opt C2H gaussian                                                     

 THE POINT GROUP OF THE MOLECULE IS C1      
 THE ORDER OF THE PRINCIPAL AXIS IS     0

 ATOM      ATOMIC                      COORDINATES (BOHR)
           CHARGE         X                   Y                   Z
 C           6.0     0.0000000000        0.0000000000        0.0000000000
 C           6.0     2.6342780269        0.0000000000        0.0000000000
 C           6.0     3.9513981431        2.2813528014       -0.0000000000
 C           6.0     2.6342402324        4.5627056028       -0.0000000000
 C           6.0    -0.0000377945        4.5626867056        0.0000000000
 C           6.0    -1.3171579107        2.2813339042        0.0000000000
 H           1.0     3.6599268067       -1.7764747093       -0.0000000000
 H           1.0     6.0026957027        2.2813716987       -0.0000000000
 H           1.0     3.6598701149        6.3391803121       -0.0000000000
 H           1.0    -3.3684554704        2.2813150069        0.0000000000
 H           1.0    -1.0257054716        6.3391614149        0.0000000000
 H           1.0    -1.0256298826       -1.7764747093        0.0000000000

          INTERNUCLEAR DISTANCES (ANGS.)
          ------------------------------

                1 C          2 C          3 C          4 C          5 C     

   1 C       0.0000000    1.3940000 *  2.4144705 *  2.7879910 *  2.4144700 *
   2 C       1.3940000 *  0.0000000    1.3939955 *  2.4144800 *  2.7880024 *
   3 C       2.4144705 *  1.3939955 *  0.0000000    1.3940055 *  2.4144828 *
   4 C       2.7879910 *  2.4144800 *  1.3940055 *  0.0000000    1.3940000 *
   5 C       2.4144700 *  2.7880024 *  2.4144828 *  1.3940000 *  0.0000000  
   6 C       1.3939968 *  2.4144828 *  2.7880000 *  2.4144755 *  1.3939955 *
   7 H       2.1528428 *  1.0854995 *  2.1528424 *  3.3981767    3.8735019  
   8 H       3.3981673    2.1528407 *  1.0855000 *  2.1528461 *  3.3981754  
   9 H       3.8734855    3.3981687    2.1528445 *  1.0854945 *  2.1528382 *
  10 H       2.1528405 *  3.3981754    3.8735000    3.3981709    2.1528407 *
  11 H       3.3981684    3.8735069    3.3981821    2.1528474 *  1.0855045 *
  12 H       1.0854945 *  2.1528338 *  3.3981574    3.8734855    3.3981589  

                6 C          7 H          8 H          9 H         10 H     

   1 C       1.3939968 *  2.1528428 *  3.3981673    3.8734855    2.1528405 *
   2 C       2.4144828 *  1.0854995 *  2.1528407 *  3.3981687    3.3981754  
   3 C       2.7880000 *  2.1528424 *  1.0855000 *  2.1528445 *  3.8735000  
   4 C       2.4144755 *  3.3981767    2.1528461 *  1.0854945 *  3.3981709  
   5 C       1.3939955 *  3.8735019    3.3981754    2.1528382 *  2.1528407 *
   6 C       0.0000000    3.3981744    3.8735000    3.3981638    1.0855000 *
   7 H       3.3981744    0.0000000    2.4795037 *  4.2946200    4.2946186  
   8 H       3.8735000    2.4795037 *  0.0000000    2.4795013 *  4.9590000  
   9 H       3.3981638    4.2946200    2.4795013 *  0.0000000    4.2946127  
  10 H       1.0855000 *  4.2946186    4.9590000    4.2946127    0.0000000  
  11 H       2.1528416 *  4.9590064    4.2946273    2.4795000 *  2.4794987 *
  12 H       2.1528345 *  2.4794900 *  4.2946077    4.9589800    2.4794927 *

               11 H         12 H     

   1 C       3.3981684    1.0854945 *
   2 C       3.8735069    2.1528338 *
   3 C       3.3981821    3.3981574  
   4 C       2.1528474 *  3.8734855  
   5 C       1.0855045 *  3.3981589  
   6 C       2.1528416 *  2.1528345 *
   7 H       4.9590064    2.4794900 *
   8 H       4.2946273    4.2946077  
   9 H       2.4795000 *  4.9589800  
  10 H       2.4794987 *  2.4794927 *
  11 H       0.0000000    4.2946100  
  12 H       4.2946100    0.0000000  

  * ... LESS THAN  3.000


     ATOMIC BASIS SET
     ----------------
 THE CONTRACTED PRIMITIVE FUNCTIONS HAVE BEEN UNNORMALIZED
 THE CONTRACTED BASIS FUNCTIONS ARE NOW NORMALIZED TO UNITY

  SHELL TYPE  PRIMITIVE        EXPONENT          CONTRACTION COEFFICIENT(S)

 C         

      1   S       1          3047.5248800    0.001834737132
      1   S       2           457.3695180    0.014037322813
      1   S       3           103.9486850    0.068842622264
      1   S       4            29.2101553    0.232184443216
      1   S       5             9.2866630    0.467941348435
      1   S       6             3.1639270    0.362311985337

      2   L       7             7.8682723   -0.119332419775    0.068999066591
      2   L       8             1.8812885   -0.160854151696    0.316423960957
      2   L       9             0.5442493    1.143456437840    0.744308290898

      3   L      10             0.1687145    1.000000000000    1.000000000000

 C         

      4   S      11          3047.5248800    0.001834737132
      4   S      12           457.3695180    0.014037322813
      4   S      13           103.9486850    0.068842622264
      4   S      14            29.2101553    0.232184443216
      4   S      15             9.2866630    0.467941348435
      4   S      16             3.1639270    0.362311985337

      5   L      17             7.8682723   -0.119332419775    0.068999066591
      5   L      18             1.8812885   -0.160854151696    0.316423960957
      5   L      19             0.5442493    1.143456437840    0.744308290898

      6   L      20             0.1687145    1.000000000000    1.000000000000

 C         

      7   S      21          3047.5248800    0.001834737132
      7   S      22           457.3695180    0.014037322813
      7   S      23           103.9486850    0.068842622264
      7   S      24            29.2101553    0.232184443216
      7   S      25             9.2866630    0.467941348435
      7   S      26             3.1639270    0.362311985337

      8   L      27             7.8682723   -0.119332419775    0.068999066591
      8   L      28             1.8812885   -0.160854151696    0.316423960957
      8   L      29             0.5442493    1.143456437840    0.744308290898

      9   L      30             0.1687145    1.000000000000    1.000000000000

 C         

     10   S      31          3047.5248800    0.001834737132
     10   S      32           457.3695180    0.014037322813
     10   S      33           103.9486850    0.068842622264
     10   S      34            29.2101553    0.232184443216
     10   S      35             9.2866630    0.467941348435
     10   S      36             3.1639270    0.362311985337

     11   L      37             7.8682723   -0.119332419775    0.068999066591
     11   L      38             1.8812885   -0.160854151696    0.316423960957
     11   L      39             0.5442493    1.143456437840    0.744308290898

     12   L      40             0.1687145    1.000000000000    1.000000000000

 C         

     13   S      41          3047.5248800    0.001834737132
     13   S      42           457.3695180    0.014037322813
     13   S      43           103.9486850    0.068842622264
     13   S      44            29.2101553    0.232184443216
     13   S      45             9.2866630    0.467941348435
     13   S      46             3.1639270    0.362311985337

     14   L      47             7.8682723   -0.119332419775    0.068999066591
     14   L      48             1.8812885   -0.160854151696    0.316423960957
     14   L      49             0.5442493    1.143456437840    0.744308290898

     15   L      50             0.1687145    1.000000000000    1.000000000000

 C         

     16   S      51          3047.5248800    0.001834737132
     16   S      52           457.3695180    0.014037322813
     16   S      53           103.9486850    0.068842622264
     16   S      54            29.2101553    0.232184443216
     16   S      55             9.2866630    0.467941348435
     16   S      56             3.1639270    0.362311985337

     17   L      57             7.8682723   -0.119332419775    0.068999066591
     17   L      58             1.8812885   -0.160854151696    0.316423960957
     17   L      59             0.5442493    1.143456437840    0.744308290898

     18   L      60             0.1687145    1.000000000000    1.000000000000

 H         

     19   S      61            18.7311370    0.033494604338
     19   S      62             2.8253944    0.234726953484
     19   S      63             0.6401217    0.813757326146

     20   S      64             0.1612778    1.000000000000

 H         

     21   S      65            18.7311370    0.033494604338
     21   S      66             2.8253944    0.234726953484
     21   S      67             0.6401217    0.813757326146

     22   S      68             0.1612778    1.000000000000

 H         

     23   S      69            18.7311370    0.033494604338
     23   S      70             2.8253944    0.234726953484
     23   S      71             0.6401217    0.813757326146

     24   S      72             0.1612778    1.000000000000

 H         

     25   S      73            18.7311370    0.033494604338
     25   S      74             2.8253944    0.234726953484
     25   S      75             0.6401217    0.813757326146

     26   S      76             0.1612778    1.000000000000

 H         

     27   S      77            18.7311370    0.033494604338
     27   S      78             2.8253944    0.234726953484
     27   S      79             0.6401217    0.813757326146

     28   S      80             0.1612778    1.000000000000

 H         

     29   S      81            18.7311370    0.033494604338
     29   S      82             2.8253944    0.234726953484
     29   S      83             0.6401217    0.813757326146

     30   S      84             0.1612778    1.000000000000

 TOTAL NUMBER OF BASIS SET SHELLS             =   30
 NUMBER OF CARTESIAN GAUSSIAN BASIS FUNCTIONS =   66
 NUMBER OF ELECTRONS                          =   42
 CHARGE OF MOLECULE                           =    0
 SPIN MULTIPLICITY                            =    1
 NUMBER OF OCCUPIED ORBITALS (ALPHA)          =   21
 NUMBER OF OCCUPIED ORBITALS (BETA )          =   21
 TOTAL NUMBER OF ATOMS                        =   12
 THE NUCLEAR REPULSION ENERGY IS      203.5533822373

     $CONTRL OPTIONS
     ---------------
 SCFTYP=MCSCF        RUNTYP=ENERGY       EXETYP=RUN     
 MPLEVL=       0     CITYP =NONE         CCTYP =NONE         VBTYP =NONE    
 DFTTYP=NONE         TDDFT =NONE    
 MULT  =       1     ICHARG=       0     NZVAR =       0     COORD =UNIQUE  
 PP    =NONE         RELWFN=NONE         LOCAL =NONE         NUMGRD=       F
 ISPHER=      -1     NOSYM =       0     MAXIT =      30     UNITS =ANGS    
 PLTORB=       F     MOLPLT=       F     AIMPAC=       F     FRIEND=        
 NPRINT=       7     IREST =       0     GEOM  =INPUT   
 NORMF =       0     NORMP =       0     ITOL  =      20     ICUT  =       9
 INTTYP=BEST         GRDTYP=BEST         QMTTOL= 1.0E-06

     $SYSTEM OPTIONS
     ---------------
  REPLICATED MEMORY=     2185666 WORDS (ON EVERY NODE).
 DISTRIBUTED MEMDDI=           0 MILLION WORDS IN AGGREGATE,
 MEMDDI DISTRIBUTED OVER   1 PROCESSORS IS           0 WORDS/PROCESSOR.
 TOTAL MEMORY REQUESTED ON EACH PROCESSOR=     2185666 WORDS.
 TIMLIM=      525600.00 MINUTES, OR     365.0 DAYS.
 PARALL= F  BALTYP=  DLB     KDIAG=    0  COREFL= F
 MXSEQ2=     300 MXSEQ3=     150  mem10=         0  mem22=         0

 Using Gaussians for PCM contribution to MEP, params: 0.10000E+01 0.10000E-07

          ----------------
          PROPERTIES INPUT
          ----------------

     MOMENTS            FIELD           POTENTIAL          DENSITY
 IEMOM =       1   IEFLD =       0   IEPOT =       0   IEDEN =       0
 WHERE =COMASS     WHERE =NUCLEI     WHERE =NUCLEI     WHERE =NUCLEI  
 OUTPUT=BOTH       OUTPUT=BOTH       OUTPUT=BOTH       OUTPUT=BOTH    
 IEMINT=       0   IEFINT=       0                     IEDINT=       0
                                                       MORB  =       0

     -------------------------------
     INTEGRAL TRANSFORMATION OPTIONS
     -------------------------------
     NWORD  =            0
     CUTOFF = 1.0E-09     MPTRAN =       0
     DIRTRF =       F     AOINTS =DUP     

          ----------------------
          MCSCF INPUT PARAMETERS
          ----------------------
 CONVERGER SELECTION: FOCAS = F  SOSCF = T  FULLNR = F  QUD = F  JACOBI = F
 SECULAR EQUATION METHOD CISTEP = GUGA    
 --- GENERAL INPUT OPTIONS:
 MAXIT =     200  MICIT =       5  ACURCY= 1.000E-05
 DAMP  =   0.000  CANONC=       T  ENGTOL= 1.000E-10
 EKT   =       F  NPUNCH=       2  NWORD =         0
 REGENERATE CI AFTER CONVERGENCE = NONE    
 DIABATIZATION AFTER CONVERGENCE =        F
 --- INPUT FOR SOSCF CONVERGER:
 FORS  =       T  NOFO  =       1

          ----------------------
          INTEGRAL INPUT OPTIONS
          ----------------------
 NOPK  =       1 NORDER=       0 SCHWRZ=       T

     ------------------------------------------
     THE POINT GROUP IS C1 , NAXIS= 0, ORDER= 1
     ------------------------------------------

     DIMENSIONS OF THE SYMMETRY SUBSPACES ARE
 A   =   66

 ..... DONE SETTING UP THE RUN .....
 STEP CPU TIME =     0.04 TOTAL CPU TIME =          0.0 (      0.0 MIN)
 TOTAL WALL CLOCK TIME=          0.0 SECONDS, CPU UTILIZATION IS    95.55%

          ********************
          1 ELECTRON INTEGRALS
          ********************
 TIME TO DO   DIPOLE INTEGRALS=      0.01
 ...... END OF ONE-ELECTRON INTEGRALS ......
 STEP CPU TIME =     0.01 TOTAL CPU TIME =          0.0 (      0.0 MIN)
 TOTAL WALL CLOCK TIME=          0.0 SECONDS, CPU UTILIZATION IS    96.14%

          -------------
          GUESS OPTIONS
          -------------
          GUESS =MOREAD            NORB  =      24          NORDER=       0
          MIX   =       F          PRTMO =       F          PUNMO =       F
          TOLZ  = 1.0E-08          TOLE  = 1.0E-05
          SYMDEN=       F          PURIFY=       F

 INITIAL GUESS ORBITALS GENERATED BY MOREAD   ROUTINE.
 *** ERROR IN READMO:   PROBLEM READING ORBITALS!
 POSSIBLY A DAMAGED OR MANGLED ORBITAL INPUT GROUP?
 ERROR OCCURED AT ORBITAL=    22 (MODULUS 100=  22),
          ITS LINE NUMBER=     1
 DATA READ FROM INPUT WAS ORBITAL=    31 LINE=     1
 EXECUTION OF GAMESS TERMINATED -ABNORMALLY- AT 15:01:40 20-JUN-2024    
               580000  WORDS OF DYNAMIC MEMORY USED
 STEP CPU TIME =     0.00 TOTAL CPU TIME =          0.0 (      0.0 MIN)
 TOTAL WALL CLOCK TIME=          0.1 SECONDS, CPU UTILIZATION IS    96.44%
 ddikick.x: application process 0 quit unexpectedly.
 ddikick.x: Sending kill signal to DDI processes.
 ddikick.x: Execution terminated due to error(s).
----- accounting info -----
Files used on the master node plana were:
-rw-r--r-- 1 barrois users   26892 Jun 20 15:01 /scratch/barrois.258980/benzene_cas.F05
-rw-r--r-- 1 barrois users       0 Jun 20 15:01 /scratch/barrois.258980/benzene_cas.F08
-rw-r--r-- 1 barrois users 1243360 Jun 20 15:01 /scratch/barrois.258980/benzene_cas.F10
Thu Jun 20 03:01:42 PM CEST 2024
0.0u 0.0s 0:02.25 6.6% 0+0k 56+320io 0pf+0w
