----- GAMESS execution script 'rungms' -----
This job is running on host plana
under operating system Linux at Thu Jun 20 03:02:47 PM CEST 2024
Available scratch disk space (Kbyte units) at beginning of the job is
Filesystem                    1K-blocks      Used Available Use% Mounted on
/dev/mapper/vg--ctom-scratch 1049889792 331369432 718520360  32% /scratch
GAMESS temporary binary files will be written to /scratch/barrois.258981
GAMESS supplementary output files will be written to /home/barrois/Acene/Benzene
Copying input file ./benzene_cas.inp to your run's scratch directory...

 Distributed Data Interface kickoff program.
 Initiating 1 compute processes on 1 nodes to run the following command:
 /home/humbel/fuming/softwares/gamess/2020-R2/gamess.xmvb.x benzene_cas 

          *******************************************************
          *                                                     *
          *          GAMESS VERSION = 30 SEP 2020 (R2)          *
          *                                                     *
          *              doi.org/10.1063/5.0005188              *
          *                                                     *
          **************** 64 BIT LINUX VERSION *****************

  GAMESS HAS BEEN MADE POSSIBLE WITH IMPORTANT CONTRIBUTIONS FROM
  THE FOLLOWING INDIVIDUALS (IN ALPHABETICAL ORDER):

     IVANA ADAMOVIC, CHRISTINE AIKENS, TOMOKO AKAMA,
     YURI ALEXEEV, YURIKO AOKI, POOJA ARORA, TOSHIO ASADA,
     ANDREY ASADCHEV, KIM K. BALDRIDGE, PRADIPTA BANDYOPADHYAY,
     MARIA BARYSZ, ROB BELL, JONATHAN BENTZ, COLLEEN BERTONI,
     JERRY A. BOATZ, BRETT BODE, KURT BRORSEN, KURT R. BRORSEN,
     LAIMUTIS BYTAUTAS, CALEB CARLIN, LAURA CARRINGTON,
     GALINA CHABAN, BENOIT CHAMPAGNE, WEI CHEN, MAHITO CHIBA,
     DAN CHIPMAN, CHEOL HO CHOI, TANNER CULPITT,
     DIPAYAN DATTA, PAUL DAY, ALBERT DEFUSCO,
     NUWAN DESILVA, J. EMILIANO DEUSTUA,
     TIM DUDLEY, MICHEL DUPUIS, STEVEN T. ELBERT,
     DMITRI FEDOROV, ALEX FINDLATER, GRAHAM FLETCHER,
     MARK FREITAG, CHRISTIAN FRIEDL, DAVID GARMER,
     IGOR S. GERASIMOV, KURT GLAESEMANN, MARK S. GORDON,
     JEFFREY GOUR, FENG LONG GU, EMILIE B. GUIDEZ,
     ANASTASIA GUNINA, SHARON HAMMES-SCHIFFER, MASATAKE HARUTA,
     KIMIHIKO HIRAO, YASUHIRO IKABATA, TZVETELIN IORDANOV,
     STEPHAN IRLE, KAZUYA ISHIMURA, JOE IVANIC, FRANK JENSEN,
     JAN H. JENSEN, VISVALDAS KAIRYS, MUNEAKI KAMIYA,
     MICHIO KATOUDA, NAOAKI KAWAKAMI, DAN KEMP, BERNARD KIRTMAN,
     KAZUO KITAURA, MARIUSZ KLOBUKOWSKI, MASATO KOBAYASHI,
     PRAKASHAN KORAMBATH, JACEK KORCHOWIEC, SHIRO KOSEKI,
     KAROL KOWALSKI, JIMMY KROMANN, STANISLAW KUCHARSKI,
     HENRY KURTZ, SAROM SOK LEANG, HUI LI, SHUHUA LI, WEI LI,
     JESSE LUTZ, ALEKSANDR O. LYKHIN, MARCIN MAKOWSKI,
     JOANI MATO, NIKITA MATSUNAGA, BENEDETTA MENNUCCI,
     GRANT MERRILL, NORIYUKI MINEZAWA, VLADIMIR MIRONOV,
     EISAKU MIYOSHI, JOHN A. MONTGOMERY JR., HIROTOSHI MORI,
     JONATHAN MULLIN, MONIKA MUSIAL, SHIGERU NAGASE,
     TAKESHI NAGATA, HIROMI NAKAI, TAKAHITO NAKAJIMA,
     YUYA NAKAJIMA, HARUYUKI NAKANO, HIROYA NAKATA, SEAN NEDD,
     HEATHER NETZLOFF, KIET A. NGUYEN, YOSHIO NISHIMOTO,
     BOSILJKA NJEGIC, RYAN OLSON, MIKE PAK, ROBERTO PEVERATI,
     BUU PHAM, PIOTR PIECUCH, ANNA POMOGAEVA, DAVID POOLE,
     SPENCER PRUITT, OLIVIER QUINET, LUKE ROSKOP,
     KLAUS RUEDENBERG, ANDREW SAND, TOSAPORN SATTASATHUCHANA,
     NOZOMI SAWADA, MICHAEL W. SCHMIDT, PATRICK E. SCHNEIDER,
     JUNJI SEINO, PRACHI SHARMA, JUN SHEN, JIM SHOEMAKER,
     YINAN SHU, DEJUN SI, JONATHAN SKONE, LYUDMILA SLIPCHENKO,
     TONY SMITH, JIE SONG, MARK SPACKMAN, CASPER STEINMANN,
     WALT STEVENS, PEIFENG SU, SHUJUN SU, CHET SWALINA,
     TETSUYA TAKETSUGU, ZHEN TAO, NANDUN THELLAMUREGE
     SEIKEN TOKURA, JACOPO TOMASI, TSUGUKI TOUMA, TAKAO TSUNEDA,
     HIROAKI UMEDA, JORGE LUIS GALVEZ VALLEJO, YALI WANG,
     SIMON WEBB, AARON WEST, THERESA L. WINDUS, MARTA WLOCH,
     PENG XU, KIYOSHI YAGI, SUSUMU YANAGISAWA, YANG YANG,
     SOOHAENG YOO, TAKESHI YOSHIKAWA, FEDERICO ZAHARIEV,
     TOBY ZENG

  WHO ARE SUPPORTED BY THEIR INSTITUTION/UNIVERSITY/COMPANY/GROUP
  (IN ALPHABETICAL ORDER):

     EP ANALYTICS, FACULTES UNIVERSITAIRES NOTRE-DAME DE LA PAIX,
     INSTITUTE FOR MOLECULAR SCIENCE, IOWA STATE UNIVERSITY,
     JACKSON STATE UNIVERSITY, JOHANNES KEPLER UNIVERSITY LINZ,
     KYUSHU UNIVERSITY, MICHIGAN STATE UNIVERSITY,
     MIE UNIVERSITY, MOSCOW STATE UNIVERSITY,
     N. COPERNICUS UNIVERSITY, NAGOYA UNIVERSITY,
     NANJING UNIVERSITY, NAT. INST. OF ADVANCED INDUSTRIAL
     SCIENCE AND TECHNOLOGY, NATIONAL INST. OF STANDARDS AND
     TECHNOLOGY, NESMEYANOV INSTITUTE OF ORGANOELEMENT COMPOUNDS
     OF RUSSIAN ACADEMY OF SCIENCES, OSAKA PREFECTURE UNIVERSITY,
     PENNSYLVANIA STATE UNIVERSITY, TOKYO INSTITUTE OF TECHNOLOGY,
     UNIVERSITY OF AARHUS, UNIVERSITY OF ALBERTA,
     UNIVERSITY OF CALIFORNIA AT SANTA BARBARA,
     UNIVERSITY OF COPENHAGEN, UNIVERSITY OF IOWA,
     UNIVERSITY OF MEMPHIS, UNIVERSITY OF MINNESOTA,
     UNIVERSITY OF NEBRASKA, UNIVERSITY OF NEW ENGLAND,
     UNIVERSITY OF NOTRE DAME, UNIVERSITY OF PISA,
     UNIVERSITY OF SILESIA, UNIVERSITY OF TOKYO,
     UNIVERSITY OF ZURICH, WASEDA UNIVERSITY, YALE UNIVERSITY

  GAMESS SOFTWARE MANAGEMENT TEAM FOR THIS RELEASE:
     MARK S. GORDON (TEAM LEAD),
     BRETT BODE (SENIOR ADVISOR),
     GIUSEPPE BARCA,
     COLLEEN BERTONI,
     KRISTOPHER KEIPERT (ADVISOR),
     SAROM S. LEANG (DEVELOPMENT LEAD),
     BUU PHAM,
     JORGE LUIS GALVEZ VALLEJO (WEBSITE ADMINISTRATOR),
     PENG XU

 EXECUTION OF GAMESS BEGUN 15:02:47 20-JUN-2024    

            ECHO OF THE FIRST FEW INPUT CARDS -
 INPUT CARD>!   File created by MacMolPlt 7.7.2                                             
 INPUT CARD>! $CONTRL SCFTYP=RHF RUNTYP=ENERGY COORD=UNIQUE  MAXIT=30 MULT=1 $END           
 INPUT CARD> $CONTRL SCFTYP=MCSCF RUNTYP=ENERGY COORD=UNIQUE  MAXIT=30 MULT=1 $END          
 INPUT CARD>! $CONTRL  VBTYP=XMVB                   $END                                    
 INPUT CARD> $SYSTEM TIMLIM=525600 MEMORY=2185666 $END                                      
 INPUT CARD> $MCSCF CISTEP=GUGA MAXIT=200 QUAD=.F. $END                                     
 INPUT CARD> $DRT    GROUP=C1  FORS=.TRUE. NMCC=18 NDOC=3 NVAL=3 $END                       
 INPUT CARD> $GUGDIA NSTATE=2 $END                                                          
 INPUT CARD> $GUGDM2 WSTATE(1)=1.0,0.0 $END                                                 
 INPUT CARD> $BASIS GBASIS=N31 NGAUSS=6 $END                                                
 INPUT CARD> $GUESS GUESS=MOREAD                                                            
 INPUT CARD>  NORB=24                                                                       
 INPUT CARD> $END                                                                           
 INPUT CARD> $SCF DIRSCF=.TRUE. $END                                                        
 INPUT CARD> $DATA                                                                          
 INPUT CARD>anthracene opt C2H gaussian                                                     
 INPUT CARD>C1                                                                              
 INPUT CARD>C  6.0     0.00000      0.00000      0.00000                                    
 INPUT CARD>C  6.0     1.39400      0.00000      0.00000                                    
 INPUT CARD>C  6.0     2.09099      1.20724     -0.00000                                    
 INPUT CARD>C  6.0     1.39398      2.41448     -0.00000                                    
 INPUT CARD>C  6.0    -0.00002      2.41447      0.00000                                    
 INPUT CARD>C  6.0    -0.69701      1.20723      0.00000                                    
 INPUT CARD>H  1.0     1.93675     -0.94007     -0.00000                                    
 INPUT CARD>H  1.0     3.17649      1.20725     -0.00000                                    
 INPUT CARD>H  1.0     1.93672      3.35455     -0.00000                                    
 INPUT CARD>H  1.0    -1.78251      1.20722      0.00000                                    
 INPUT CARD>H  1.0    -0.54278      3.35454      0.00000                                    
 INPUT CARD>H  1.0    -0.54274     -0.94007      0.00000                                    
 INPUT CARD> $END                                                                           
 INPUT CARD> $VEC                                                                           
 INPUT CARD> 1  1-3.63845954E-02 1.39530416E-03-6.85935178E-04-1.23025496E-05 0.00000000E+00
 INPUT CARD> 1  2 2.44063966E-03-2.08815961E-03 7.83124568E-03 0.00000000E+00 5.72391870E-02
 INPUT CARD> 1  3-1.85297374E-04-1.11139308E-04 3.83585062E-04 0.00000000E+00-3.13536612E-03
 INPUT CARD> 1  4-2.27895426E-03-6.86113893E-03 0.00000000E+00 9.27569961E-01 1.80091006E-02
 INPUT CARD> 1  5-7.03656885E-04-5.62932187E-04 0.00000000E+00 1.67088607E-03-7.75367795E-03
 INPUT CARD> 1  6-6.25544687E-03 0.00000000E+00 1.67216032E-01 1.12469181E-03-2.11664883E-03
 INPUT CARD> 1  7-1.61723090E-03 0.00000000E+00 1.40208449E-03 8.21796998E-03 4.09918143E-03
 INPUT CARD> 1  8 0.00000000E+00 2.71175784E-01 6.64111457E-03 9.87319815E-04-2.86033101E-04
 INPUT CARD> 1  9 0.00000000E+00-6.27463547E-03 4.97466010E-03 2.35192747E-04 0.00000000E+00
 INPUT CARD> 1 10 1.59520317E-01 5.33655593E-03-1.09459668E-03-2.50089735E-03 0.00000000E+00
 INPUT CARD> 1 11-3.67473093E-03-7.67787451E-04 1.25233978E-02 0.00000000E+00 2.51772969E-03
 INPUT CARD> 1 12-4.47918906E-03 3.66069416E-03 1.50457673E-03 1.42627647E-03-4.51412635E-03
 INPUT CARD> 1 13 1.81475397E-03-2.64710208E-03 2.34130013E-03 1.05733888E-03 1.56352310E-03
 INPUT CARD> 1 14 4.29373810E-03                                                            
 INPUT CARD> 2  1 2.85516703E-01 1.03174537E-02-5.08476555E-04 1.27520303E-03-0.00000000E+00
 INPUT CARD> 2  2 1.46132266E-02 7.40580966E-03 2.16903854E-02-0.00000000E+00 1.47867009E-02
 INPUT CARD> 2  3 3.49384580E-03 2.19226760E-03 7.93385387E-04-0.00000000E+00-3.06545097E-02
 INPUT CARD> 2  4 2.91270844E-03-2.78066180E-02-0.00000000E+00 9.34159483E-03-6.72657629E-03
 INPUT CARD> 2  5 6.34991616E-04 2.76461910E-04-0.00000000E+00 3.62715695E-02-2.84800035E-02
    2185666 WORDS OF MEMORY AVAILABLE

     BASIS OPTIONS
     -------------
     GBASIS=N31          IGAUSS=       6      POLAR=NONE    
     NDFUNC=       0     NFFUNC=       0     DIFFSP=       F
     NPFUNC=       0      DIFFS=       F     BASNAM=        


     RUN TITLE
     ---------
 anthracene opt C2H gaussian                                                     

 THE POINT GROUP OF THE MOLECULE IS C1      
 THE ORDER OF THE PRINCIPAL AXIS IS     0

 ATOM      ATOMIC                      COORDINATES (BOHR)
           CHARGE         X                   Y                   Z
 C           6.0     0.0000000000        0.0000000000        0.0000000000
 C           6.0     2.6342780269        0.0000000000        0.0000000000
 C           6.0     3.9513981431        2.2813528014       -0.0000000000
 C           6.0     2.6342402324        4.5627056028       -0.0000000000
 C           6.0    -0.0000377945        4.5626867056        0.0000000000
 C           6.0    -1.3171579107        2.2813339042        0.0000000000
 H           1.0     3.6599268067       -1.7764747093       -0.0000000000
 H           1.0     6.0026957027        2.2813716987       -0.0000000000
 H           1.0     3.6598701149        6.3391803121       -0.0000000000
 H           1.0    -3.3684554704        2.2813150069        0.0000000000
 H           1.0    -1.0257054716        6.3391614149        0.0000000000
 H           1.0    -1.0256298826       -1.7764747093        0.0000000000

          INTERNUCLEAR DISTANCES (ANGS.)
          ------------------------------

                1 C          2 C          3 C          4 C          5 C     

   1 C       0.0000000    1.3940000 *  2.4144705 *  2.7879910 *  2.4144700 *
   2 C       1.3940000 *  0.0000000    1.3939955 *  2.4144800 *  2.7880024 *
   3 C       2.4144705 *  1.3939955 *  0.0000000    1.3940055 *  2.4144828 *
   4 C       2.7879910 *  2.4144800 *  1.3940055 *  0.0000000    1.3940000 *
   5 C       2.4144700 *  2.7880024 *  2.4144828 *  1.3940000 *  0.0000000  
   6 C       1.3939968 *  2.4144828 *  2.7880000 *  2.4144755 *  1.3939955 *
   7 H       2.1528428 *  1.0854995 *  2.1528424 *  3.3981767    3.8735019  
   8 H       3.3981673    2.1528407 *  1.0855000 *  2.1528461 *  3.3981754  
   9 H       3.8734855    3.3981687    2.1528445 *  1.0854945 *  2.1528382 *
  10 H       2.1528405 *  3.3981754    3.8735000    3.3981709    2.1528407 *
  11 H       3.3981684    3.8735069    3.3981821    2.1528474 *  1.0855045 *
  12 H       1.0854945 *  2.1528338 *  3.3981574    3.8734855    3.3981589  

                6 C          7 H          8 H          9 H         10 H     

   1 C       1.3939968 *  2.1528428 *  3.3981673    3.8734855    2.1528405 *
   2 C       2.4144828 *  1.0854995 *  2.1528407 *  3.3981687    3.3981754  
   3 C       2.7880000 *  2.1528424 *  1.0855000 *  2.1528445 *  3.8735000  
   4 C       2.4144755 *  3.3981767    2.1528461 *  1.0854945 *  3.3981709  
   5 C       1.3939955 *  3.8735019    3.3981754    2.1528382 *  2.1528407 *
   6 C       0.0000000    3.3981744    3.8735000    3.3981638    1.0855000 *
   7 H       3.3981744    0.0000000    2.4795037 *  4.2946200    4.2946186  
   8 H       3.8735000    2.4795037 *  0.0000000    2.4795013 *  4.9590000  
   9 H       3.3981638    4.2946200    2.4795013 *  0.0000000    4.2946127  
  10 H       1.0855000 *  4.2946186    4.9590000    4.2946127    0.0000000  
  11 H       2.1528416 *  4.9590064    4.2946273    2.4795000 *  2.4794987 *
  12 H       2.1528345 *  2.4794900 *  4.2946077    4.9589800    2.4794927 *

               11 H         12 H     

   1 C       3.3981684    1.0854945 *
   2 C       3.8735069    2.1528338 *
   3 C       3.3981821    3.3981574  
   4 C       2.1528474 *  3.8734855  
   5 C       1.0855045 *  3.3981589  
   6 C       2.1528416 *  2.1528345 *
   7 H       4.9590064    2.4794900 *
   8 H       4.2946273    4.2946077  
   9 H       2.4795000 *  4.9589800  
  10 H       2.4794987 *  2.4794927 *
  11 H       0.0000000    4.2946100  
  12 H       4.2946100    0.0000000  

  * ... LESS THAN  3.000


     ATOMIC BASIS SET
     ----------------
 THE CONTRACTED PRIMITIVE FUNCTIONS HAVE BEEN UNNORMALIZED
 THE CONTRACTED BASIS FUNCTIONS ARE NOW NORMALIZED TO UNITY

  SHELL TYPE  PRIMITIVE        EXPONENT          CONTRACTION COEFFICIENT(S)

 C         

      1   S       1          3047.5248800    0.001834737132
      1   S       2           457.3695180    0.014037322813
      1   S       3           103.9486850    0.068842622264
      1   S       4            29.2101553    0.232184443216
      1   S       5             9.2866630    0.467941348435
      1   S       6             3.1639270    0.362311985337

      2   L       7             7.8682723   -0.119332419775    0.068999066591
      2   L       8             1.8812885   -0.160854151696    0.316423960957
      2   L       9             0.5442493    1.143456437840    0.744308290898

      3   L      10             0.1687145    1.000000000000    1.000000000000

 C         

      4   S      11          3047.5248800    0.001834737132
      4   S      12           457.3695180    0.014037322813
      4   S      13           103.9486850    0.068842622264
      4   S      14            29.2101553    0.232184443216
      4   S      15             9.2866630    0.467941348435
      4   S      16             3.1639270    0.362311985337

      5   L      17             7.8682723   -0.119332419775    0.068999066591
      5   L      18             1.8812885   -0.160854151696    0.316423960957
      5   L      19             0.5442493    1.143456437840    0.744308290898

      6   L      20             0.1687145    1.000000000000    1.000000000000

 C         

      7   S      21          3047.5248800    0.001834737132
      7   S      22           457.3695180    0.014037322813
      7   S      23           103.9486850    0.068842622264
      7   S      24            29.2101553    0.232184443216
      7   S      25             9.2866630    0.467941348435
      7   S      26             3.1639270    0.362311985337

      8   L      27             7.8682723   -0.119332419775    0.068999066591
      8   L      28             1.8812885   -0.160854151696    0.316423960957
      8   L      29             0.5442493    1.143456437840    0.744308290898

      9   L      30             0.1687145    1.000000000000    1.000000000000

 C         

     10   S      31          3047.5248800    0.001834737132
     10   S      32           457.3695180    0.014037322813
     10   S      33           103.9486850    0.068842622264
     10   S      34            29.2101553    0.232184443216
     10   S      35             9.2866630    0.467941348435
     10   S      36             3.1639270    0.362311985337

     11   L      37             7.8682723   -0.119332419775    0.068999066591
     11   L      38             1.8812885   -0.160854151696    0.316423960957
     11   L      39             0.5442493    1.143456437840    0.744308290898

     12   L      40             0.1687145    1.000000000000    1.000000000000

 C         

     13   S      41          3047.5248800    0.001834737132
     13   S      42           457.3695180    0.014037322813
     13   S      43           103.9486850    0.068842622264
     13   S      44            29.2101553    0.232184443216
     13   S      45             9.2866630    0.467941348435
     13   S      46             3.1639270    0.362311985337

     14   L      47             7.8682723   -0.119332419775    0.068999066591
     14   L      48             1.8812885   -0.160854151696    0.316423960957
     14   L      49             0.5442493    1.143456437840    0.744308290898

     15   L      50             0.1687145    1.000000000000    1.000000000000

 C         

     16   S      51          3047.5248800    0.001834737132
     16   S      52           457.3695180    0.014037322813
     16   S      53           103.9486850    0.068842622264
     16   S      54            29.2101553    0.232184443216
     16   S      55             9.2866630    0.467941348435
     16   S      56             3.1639270    0.362311985337

     17   L      57             7.8682723   -0.119332419775    0.068999066591
     17   L      58             1.8812885   -0.160854151696    0.316423960957
     17   L      59             0.5442493    1.143456437840    0.744308290898

     18   L      60             0.1687145    1.000000000000    1.000000000000

 H         

     19   S      61            18.7311370    0.033494604338
     19   S      62             2.8253944    0.234726953484
     19   S      63             0.6401217    0.813757326146

     20   S      64             0.1612778    1.000000000000

 H         

     21   S      65            18.7311370    0.033494604338
     21   S      66             2.8253944    0.234726953484
     21   S      67             0.6401217    0.813757326146

     22   S      68             0.1612778    1.000000000000

 H         

     23   S      69            18.7311370    0.033494604338
     23   S      70             2.8253944    0.234726953484
     23   S      71             0.6401217    0.813757326146

     24   S      72             0.1612778    1.000000000000

 H         

     25   S      73            18.7311370    0.033494604338
     25   S      74             2.8253944    0.234726953484
     25   S      75             0.6401217    0.813757326146

     26   S      76             0.1612778    1.000000000000

 H         

     27   S      77            18.7311370    0.033494604338
     27   S      78             2.8253944    0.234726953484
     27   S      79             0.6401217    0.813757326146

     28   S      80             0.1612778    1.000000000000

 H         

     29   S      81            18.7311370    0.033494604338
     29   S      82             2.8253944    0.234726953484
     29   S      83             0.6401217    0.813757326146

     30   S      84             0.1612778    1.000000000000

 TOTAL NUMBER OF BASIS SET SHELLS             =   30
 NUMBER OF CARTESIAN GAUSSIAN BASIS FUNCTIONS =   66
 NUMBER OF ELECTRONS                          =   42
 CHARGE OF MOLECULE                           =    0
 SPIN MULTIPLICITY                            =    1
 NUMBER OF OCCUPIED ORBITALS (ALPHA)          =   21
 NUMBER OF OCCUPIED ORBITALS (BETA )          =   21
 TOTAL NUMBER OF ATOMS                        =   12
 THE NUCLEAR REPULSION ENERGY IS      203.5533822373

     $CONTRL OPTIONS
     ---------------
 SCFTYP=MCSCF        RUNTYP=ENERGY       EXETYP=RUN     
 MPLEVL=       0     CITYP =NONE         CCTYP =NONE         VBTYP =NONE    
 DFTTYP=NONE         TDDFT =NONE    
 MULT  =       1     ICHARG=       0     NZVAR =       0     COORD =UNIQUE  
 PP    =NONE         RELWFN=NONE         LOCAL =NONE         NUMGRD=       F
 ISPHER=      -1     NOSYM =       0     MAXIT =      30     UNITS =ANGS    
 PLTORB=       F     MOLPLT=       F     AIMPAC=       F     FRIEND=        
 NPRINT=       7     IREST =       0     GEOM  =INPUT   
 NORMF =       0     NORMP =       0     ITOL  =      20     ICUT  =       9
 INTTYP=BEST         GRDTYP=BEST         QMTTOL= 1.0E-06

     $SYSTEM OPTIONS
     ---------------
  REPLICATED MEMORY=     2185666 WORDS (ON EVERY NODE).
 DISTRIBUTED MEMDDI=           0 MILLION WORDS IN AGGREGATE,
 MEMDDI DISTRIBUTED OVER   1 PROCESSORS IS           0 WORDS/PROCESSOR.
 TOTAL MEMORY REQUESTED ON EACH PROCESSOR=     2185666 WORDS.
 TIMLIM=      525600.00 MINUTES, OR     365.0 DAYS.
 PARALL= F  BALTYP=  DLB     KDIAG=    0  COREFL= F
 MXSEQ2=     300 MXSEQ3=     150  mem10=         0  mem22=         0

 Using Gaussians for PCM contribution to MEP, params: 0.10000E+01 0.10000E-07

          ----------------
          PROPERTIES INPUT
          ----------------

     MOMENTS            FIELD           POTENTIAL          DENSITY
 IEMOM =       1   IEFLD =       0   IEPOT =       0   IEDEN =       0
 WHERE =COMASS     WHERE =NUCLEI     WHERE =NUCLEI     WHERE =NUCLEI  
 OUTPUT=BOTH       OUTPUT=BOTH       OUTPUT=BOTH       OUTPUT=BOTH    
 IEMINT=       0   IEFINT=       0                     IEDINT=       0
                                                       MORB  =       0

     -------------------------------
     INTEGRAL TRANSFORMATION OPTIONS
     -------------------------------
     NWORD  =            0
     CUTOFF = 1.0E-09     MPTRAN =       0
     DIRTRF =       F     AOINTS =DUP     

          ----------------------
          MCSCF INPUT PARAMETERS
          ----------------------
 CONVERGER SELECTION: FOCAS = F  SOSCF = T  FULLNR = F  QUD = F  JACOBI = F
 SECULAR EQUATION METHOD CISTEP = GUGA    
 --- GENERAL INPUT OPTIONS:
 MAXIT =     200  MICIT =       5  ACURCY= 1.000E-05
 DAMP  =   0.000  CANONC=       T  ENGTOL= 1.000E-10
 EKT   =       F  NPUNCH=       2  NWORD =         0
 REGENERATE CI AFTER CONVERGENCE = NONE    
 DIABATIZATION AFTER CONVERGENCE =        F
 --- INPUT FOR SOSCF CONVERGER:
 FORS  =       T  NOFO  =       1

          ----------------------
          INTEGRAL INPUT OPTIONS
          ----------------------
 NOPK  =       1 NORDER=       0 SCHWRZ=       T

     ------------------------------------------
     THE POINT GROUP IS C1 , NAXIS= 0, ORDER= 1
     ------------------------------------------

     DIMENSIONS OF THE SYMMETRY SUBSPACES ARE
 A   =   66

 ..... DONE SETTING UP THE RUN .....
 STEP CPU TIME =     0.04 TOTAL CPU TIME =          0.0 (      0.0 MIN)
 TOTAL WALL CLOCK TIME=          0.0 SECONDS, CPU UTILIZATION IS    96.76%

          ********************
          1 ELECTRON INTEGRALS
          ********************
 TIME TO DO   DIPOLE INTEGRALS=      0.01
 ...... END OF ONE-ELECTRON INTEGRALS ......
 STEP CPU TIME =     0.01 TOTAL CPU TIME =          0.0 (      0.0 MIN)
 TOTAL WALL CLOCK TIME=          0.1 SECONDS, CPU UTILIZATION IS    97.17%

          -------------
          GUESS OPTIONS
          -------------
          GUESS =MOREAD            NORB  =      24          NORDER=       0
          MIX   =       F          PRTMO =       F          PUNMO =       F
          TOLZ  = 1.0E-08          TOLE  = 1.0E-05
          SYMDEN=       F          PURIFY=       F

 INITIAL GUESS ORBITALS GENERATED BY MOREAD   ROUTINE.

 SYMMETRIES FOR INITIAL GUESS ORBITALS FOLLOW.   BOTH SET(S).
    24 ORBITALS ARE OCCUPIED (    6 CORE ORBITALS).
     1=A        2=A        3=A        4=A        5=A        6=A        7=A   
     8=A        9=A       10=A       11=A       12=A       13=A       14=A   
    15=A       16=A       17=A       18=A       19=A       20=A       21=A   
    22=A       23=A       24=A       25=A       26=A       27=A       28=A   
    29=A       30=A       31=A       32=A       33=A       34=A       35=A   
    36=A       37=A       38=A       39=A       40=A       41=A       42=A   
    43=A       44=A       45=A       46=A       47=A       48=A       49=A   
    50=A       51=A       52=A       53=A       54=A       55=A       56=A   
    57=A       58=A       59=A       60=A       61=A       62=A       63=A   
    64=A       65=A       66=A   
 ...... END OF INITIAL ORBITAL SELECTION ......
 STEP CPU TIME =     0.01 TOTAL CPU TIME =          0.1 (      0.0 MIN)
 TOTAL WALL CLOCK TIME=          0.1 SECONDS, CPU UTILIZATION IS    97.50%

                    ----------------------
                    AO INTEGRAL TECHNOLOGY
                    ----------------------
     S,P,L SHELL ROTATED AXIS INTEGRALS, REPROGRAMMED BY
        KAZUYA ISHIMURA (IMS) AND JOSE SIERRA (SYNSTAR).
     S,P,D,L SHELL ROTATED AXIS INTEGRALS PROGRAMMED BY
        KAZUYA ISHIMURA (INSTITUTE FOR MOLECULAR SCIENCE).
     S,P,D,F,G SHELL TO TOTAL QUARTET ANGULAR MOMENTUM SUM 5,
        ERIC PROGRAM BY GRAHAM FLETCHER (ELORET AND NASA ADVANCED
        SUPERCOMPUTING DIVISION, AMES RESEARCH CENTER).
     S,P,D,F,G,L SHELL GENERAL RYS QUADRATURE PROGRAMMED BY
        MICHEL DUPUIS (PACIFIC NORTHWEST NATIONAL LABORATORY).

          --------------------
          2 ELECTRON INTEGRALS
          --------------------

 THE -PK- OPTION IS OFF, THE INTEGRALS ARE NOT IN SUPERMATRIX FORM.
 STORING   15000 INTEGRALS/RECORD ON DISK, USING 12 BYTES/INTEGRAL.
 TWO ELECTRON INTEGRAL EVALUATION REQUIRES   89821 WORDS OF MEMORY.
 SCHWARZ INEQUALITY OVERHEAD:      2208 INTEGRALS, T=        0.00
 II,JST,KST,LST =  1  1  1  1 NREC =         1 INTLOC =    1
 II,JST,KST,LST =  2  1  1  1 NREC =         1 INTLOC =    2
 II,JST,KST,LST =  3  1  1  1 NREC =         1 INTLOC =   34
 II,JST,KST,LST =  4  1  1  1 NREC =         1 INTLOC =  214
 II,JST,KST,LST =  5  1  1  1 NREC =         1 INTLOC =  406
 II,JST,KST,LST =  6  1  1  1 NREC =         1 INTLOC = 1667
 II,JST,KST,LST =  7  1  1  1 NREC =         1 INTLOC = 4350
 II,JST,KST,LST =  8  1  1  1 NREC =         1 INTLOC = 6282
 II,JST,KST,LST =  9  1  1  1 NREC =         2 INTLOC = 2295
 II,JST,KST,LST = 10  1  1  1 NREC =         3 INTLOC = 5273
 II,JST,KST,LST = 11  1  1  1 NREC =         3 INTLOC =10921
 II,JST,KST,LST = 12  1  1  1 NREC =         5 INTLOC =11317
 II,JST,KST,LST = 13  1  1  1 NREC =         8 INTLOC =10395
 II,JST,KST,LST = 14  1  1  1 NREC =         9 INTLOC = 8101
 II,JST,KST,LST = 15  1  1  1 NREC =        13 INTLOC =13756
 II,JST,KST,LST = 16  1  1  1 NREC =        19 INTLOC =12398
 II,JST,KST,LST = 17  1  1  1 NREC =        21 INTLOC = 7113
 II,JST,KST,LST = 18  1  1  1 NREC =        29 INTLOC = 8050
 II,JST,KST,LST = 19  1  1  1 NREC =        39 INTLOC =13457
 II,JST,KST,LST = 20  1  1  1 NREC =        42 INTLOC =11910
 II,JST,KST,LST = 21  1  1  1 NREC =        46 INTLOC = 3258
 II,JST,KST,LST = 22  1  1  1 NREC =        49 INTLOC = 6279
 II,JST,KST,LST = 23  1  1  1 NREC =        53 INTLOC = 3503
 II,JST,KST,LST = 24  1  1  1 NREC =        56 INTLOC =12155
 II,JST,KST,LST = 25  1  1  1 NREC =        61 INTLOC = 1415
 II,JST,KST,LST = 26  1  1  1 NREC =        64 INTLOC =12512
 II,JST,KST,LST = 27  1  1  1 NREC =        69 INTLOC = 8158
 II,JST,KST,LST = 28  1  1  1 NREC =        73 INTLOC =13306
 II,JST,KST,LST = 29  1  1  1 NREC =        79 INTLOC = 2328
 II,JST,KST,LST = 30  1  1  1 NREC =        83 INTLOC =13175
 SCHWARZ INEQUALITY TEST SKIPPED       18198 INTEGRAL BLOCKS.
 TOTAL NUMBER OF NONZERO TWO-ELECTRON INTEGRALS =             1330396
         89 INTEGRAL RECORDS WERE STORED ON DISK FILE  8.
  ...... END OF TWO-ELECTRON INTEGRALS .....
 STEP CPU TIME =     0.24 TOTAL CPU TIME =          0.3 (      0.0 MIN)
 TOTAL WALL CLOCK TIME=          0.3 SECONDS, CPU UTILIZATION IS    99.02%

          -----------------
          MCSCF CALCULATION
          -----------------

 ----- NUCLEAR ENERGY ----- =       203.5533822373

          -----------------------     ----------------------------
          GUGA DISTINCT ROW TABLE     WRITTEN BY B.R.BROOKS,P.SAXE
          -----------------------     ----------------------------

      GROUP=C1           NPRT=       0
       FORS=       T   INTACT=       F
       FOCI=       F   MXNINT=   50000
       SOCI=       F   MXNEME=   10000
     IEXCIT=       0

      -CORE-    -INTERNAL-  -EXTERNAL-
     NFZC=   0   NDOC=   3   NEXT=   0
     NMCC=  18   NAOS=   0   NFZV=   0
                 NBOS=   0
                 NALP=   0
                 NVAL=   3

 THE MAXIMUM ELECTRON EXCITATION WILL BE   6

 SYMMETRIES FOR THE  18 CORE,   6 ACTIVE,   0 EXTERNAL MO-S ARE
     CORE= A     A     A     A     A     A     A     A     A     A   
           A     A     A     A     A     A     A     A   
   ACTIVE= A     A     A     A     A     A   
           DOC   DOC   DOC   VAL   VAL   VAL 

 MOLECULAR CHARGE          =    0
 NUMBER OF ALPHA ELECTRONS =   21
 NUMBER OF  BETA ELECTRONS =   21

 THE ELECTRONIC STATE IS  1-A   

 THE DISTINCT ROW TABLE HAS        30 ROWS.
  THE WAVEFUNCTION CONTAINS       175 WALKS (CSF-S).

 TOTAL NUMBER OF INTEGRALS =        292
 NUMBER OF INTEGRALS/GROUP =        292
 NUMBER OF INTEGRAL GROUPS =          1
 MAXIMUM RECORD SIZES ARE     500 FOR UNIT 11     175 FOR UNIT 12
                            30001 FOR UNIT 15   30001 FOR UNIT 16
 ...... END OF -DRT- GENERATION ...... 
 STEP CPU TIME =     0.01 TOTAL CPU TIME =          0.3 (      0.0 MIN)
 TOTAL WALL CLOCK TIME=          0.3 SECONDS, CPU UTILIZATION IS    99.06%
 OPENING FILE DAFL30 WITH      81 LOGICAL RECORDS OF    4356 WORDS
 WITH A MAXIMUM OF         243 PHYSICAL RECORDS OF    2048 WORDS

          ------------------------------
          CASSCF INTEGRAL TRANSFORMATION
          ------------------------------
 AO INTEGRALS WILL BE READ IN FROM DISK...

 NUMBER OF CORE MOLECULAR ORBITALS     =    18
 NUMBER OF OCCUPIED MOLECULAR ORBITALS =    24
 TOTAL NUMBER OF MOLECULAR ORBITALS    =    66
 TOTAL NUMBER OF ATOMIC ORBITALS       =    66

 ----- CHOOSING THREE STEPS TRANSFORMATION -----
 NUMBER OF WORDS USED      =     993043
 NUMBER OF WORDS AVAILABLE =    2185665
 NUMBER OF PASSES          =          1

 ----- NUCLEAR REPULSION ENERGY =    203.55338224
 ----- FROZEN CORE ENERGY       =   -427.77722617

 ... SYMMETRY ...           CPU =    0.00
 ... (PQ|RS) -> (PQ|KL) ... CPU =    0.07
 ... (PQ|KL) -> (IJ|KL) ... CPU =    0.00

 NUMBER OF (PQ|KL) INTEGRALS WRITTEN      32005
 NUMBER OF (IJ|KL) INTEGRALS WRITTEN        231
 ..... END OF CAS INTEGRAL TRANSFORMATION .....
 STEP CPU TIME =     0.07 TOTAL CPU TIME =          0.4 (      0.0 MIN)
 TOTAL WALL CLOCK TIME=          0.4 SECONDS, CPU UTILIZATION IS    99.24%

          ------------------------
          GUGA-CI INTEGRAL SORTING
          ------------------------

     80097 WORDS NEEDED TO SORT            292 GUGA INTEGRALS IN MEMORY
   2185665 WORDS ARE AVAILABLE
 CHOOSING IN-MEMORY SORTING...
 IN CORE ALGORITHM SORTED             21 NON-ZERO 1E- INTEGRALS
 IN CORE ALGORITHM SORTED            231 NON-ZERO 2E- INTEGRALS
 ...... END OF INTEGRAL SORTING ...... 
 STEP CPU TIME =     0.00 TOTAL CPU TIME =          0.4 (      0.0 MIN)
 TOTAL WALL CLOCK TIME=          0.4 SECONDS, CPU UTILIZATION IS    99.25%

 -------------------------     ---------------------------------------
 ENERGY MATRIX CALCULATION     WRITTEN BY B.R.BROOKS,W.D.LAIDIG,P.SAXE
 -------------------------     ---------------------------------------

 COMPUTING THE HAMILTONIAN FOR THE       175 CSF-S...

       11101 IS THE TOTAL NUMBER OF GENERATED LOOPS
       11101 WERE CREATED BY THE LOOP-DRIVEN ALGORITHM
           0 WERE CREATED IMPLICITLY

       11049 IS THE TOTAL NUMBER OF PROCESSED LOOPS
         684     DIAGONAL LOOPS ARE STORED ON WORK15 IN     1 BUFFERS OF  10000 ELEMENTS.
       10365 OFF DIAGONAL LOOPS ARE STORED ON WORK16 IN     2 BUFFERS OF  10000 ELEMENTS.
 ...... END OF ENERGY MATRIX CALCULATION ...... 
 STEP CPU TIME =     0.01 TOTAL CPU TIME =          0.4 (      0.0 MIN)
 TOTAL WALL CLOCK TIME=          0.4 SECONDS, CPU UTILIZATION IS    99.26%

          -----------------------------------------
          DAVIDSON METHOD CI-MATRIX DIAGONALIZATION
                   WRITTEN BY STEVE ELBERT
          -----------------------------------------
 NUMBER OF STATES REQUESTED =     2
 MAX. NUMB. OF EXPAN. VEC   =    30
 MAX. NUMB. IMPROVED STATES =     2
 MAX. NUMB. OF ITERATIONS   =    50
 CONVERGENCE CRITERION      =    1.0E-05

 CHOOSING TO SOLVE SECULAR EQUATION IN MEMORY
 NUMBER OF WORDS AVAILABLE =    2185665
 NUMBER OF WORDS USED      =      59750
 ENERGY MATRIX BUFFER SIZE =      10000

 ITER. NO.JUST IMPROVED    ENERGY AND STATE
   0  50(MAX.TOL.STATE)   -230.639094957  1   -230.361680337  2
   1   7  0.63570777  6   -230.674215991  1   -230.450195781  2
   2   6  0.16696868  4   -230.677601623  1   -230.471707911  2
   3   5  0.07896687  3   -230.677922079  1   -230.474797350  2
   4   4  0.03461436  3   -230.677936634  1   -230.475162467  2
   5   3  0.00538149  2   -230.677937624  1   -230.475192547  2
   6   2  0.00183072  2   -230.677937674  1   -230.475195452  2
   7   2  0.00053830  2   -230.677937676  1   -230.475195729  2
   8   2  0.00012257  2   -230.677937677  1   -230.475195743  2
   9   2  0.00003022  2   -230.677937677  1   -230.475195744  2
  10   1  0.00000790  2   -230.677937677  1   -230.475195744  2
 SOLUTION FOUND WITH INDIRECT METHOD

 STATE #    1  ENERGY =    -230.677937677

      CSF      COEF    OCCUPANCY (IGNORING CORE)
      ---      ----    --------- --------- -----
        1    0.942868  222000
        5   -0.148983  220002
       15   -0.054467  121011
       19    0.103027  121011
       36   -0.073192  022020
       54    0.110962  211101
       58   -0.111906  211101
       90    0.065187  112110
      129   -0.142102  202200

 STATE #    2  ENERGY =    -230.475195744

      CSF      COEF    OCCUPANCY (IGNORING CORE)
      ---      ----    --------- --------- -----
        2   -0.066221  221001
        3    0.549925  212001
        4    0.312465  122001
        8    0.101722  202002
        9   -0.073012  112002
       10   -0.088466  022002
       11    0.303528  221010
       18    0.114025  211011
       19    0.183341  121011
       31   -0.074957  220020
       35    0.064274  112020
       51   -0.532761  221100
       52   -0.061482  212100
       58    0.183825  211101
       59   -0.128095  121101
       67    0.051640  111102
       86    0.072214  220110
       90   -0.087322  112110
       91   -0.069380  022110
      126    0.081907  220200
      129   -0.139741  202200
      131    0.050358  022200
      138    0.051687  102201
      149   -0.050226  201210
 ...... END OF CI-MATRIX DIAGONALIZATION ......
 STEP CPU TIME =     0.00 TOTAL CPU TIME =          0.4 (      0.0 MIN)
 TOTAL WALL CLOCK TIME=          0.4 SECONDS, CPU UTILIZATION IS    99.26%

          -------------------------------------
          2-PARTICLE DENSITY MATRIX CALCULATION
          -------------------------------------
 2 BODY DENSITY IS AN AVERAGE OF  1 STATE(S).
   STATE    WEIGHT          ENERGY
     1    1.000000     -230.6779376766
        11101 -DM2- LOOPS WERE GENERATED
        11101 WERE CREATED BY THE LOOP-DRIVEN ALGORITHM
            0 WERE CREATED IMPLICITLY
          1 RECORDS OF LENGTH 50000 WRITTEN TO FILE 15
 ...... END OF 2-PARTICLE DENSITY MATRIX CALCULATION ......
 STEP CPU TIME =     0.00 TOTAL CPU TIME =          0.4 (      0.0 MIN)
 TOTAL WALL CLOCK TIME=          0.4 SECONDS, CPU UTILIZATION IS    99.24%

          ----------------------------------
          2-PARTICLE DENSITY MATRIX LABELING
          ----------------------------------
      96742 WORDS NEEDED TO LABEL DM2 MATRIX
          1 RECORDS OF LENGTH 50000  READ FROM FILE 15
          1 RECORDS OF LENGTH 15000 WRITTEN TO FILE 16
 ...... END OF 2-PARTICLE DENSITY MATRIX LABELING ......
 STEP CPU TIME =     0.00 TOTAL CPU TIME =          0.4 (      0.0 MIN)
 TOTAL WALL CLOCK TIME=          0.4 SECONDS, CPU UTILIZATION IS    99.21%

          --------------
          -DM2- ORDERING
          --------------
      30253 WORDS NEEDED (   2185665 AVAILABLE) TO ORDER DM2 IN MEMORY
 CHOOSING IN MEMORY ORDERING...
                               1 RECORDS OF LENGTH 15000  READ FROM FILE 16
        231 DM2 VALUES IN      1 RECORDS OF LENGTH 15000 WRITTEN TO FILE 15
 ...... END OF -DM2- ORDERING ...... 
 STEP CPU TIME =     0.00 TOTAL CPU TIME =          0.4 (      0.0 MIN)
 TOTAL WALL CLOCK TIME=          0.4 SECONDS, CPU UTILIZATION IS    99.19%

          --------------------------------------
          APPROXIMATE SECOND-ORDER MCSCF PROGRAM
          --------------------------------------
          PROGRAM WRITTEN BY G.CHABAN, A.MARQUEZ, AND M.DUPUIS

  NUMBER OF WORDS NEEDED     =     105309
  NUMBER AVAILABLE           =    2185665

 ----- GAMMA(IJKL)*(PQ|KL) PRODUCTS ----- CPU TIME =      0.003
 ----- ORBITAL SYMMETRY             ----- CPU TIME =      0.000
 ----- FOCK OPERATORS CONSTRUCTION  ----- CPU TIME =      0.018
     MICIT =   1 ASYMM =    0.115047 ROTMAX =    0.033153
 ----- EFFECTIVE FOCK + ROTATE ORBS ----- CPU TIME =      0.005
     MICIT =   2 ASYMM =    0.063545 ROTMAX =    0.004878
     MICIT =   3 ASYMM =    0.053959 ROTMAX =    0.008554
     MICIT =   4 ASYMM =    0.045391 ROTMAX =    0.009762
     MICIT =   5 ASYMM =    0.037883 ROTMAX =    0.010598
 ..... DONE WITH CASSCF ORBITAL UPDATE .....
 STEP CPU TIME =     0.04 TOTAL CPU TIME =          0.4 (      0.0 MIN)
 TOTAL WALL CLOCK TIME=          0.4 SECONDS, CPU UTILIZATION IS    99.27%

 ITER     TOTAL ENERGY      DEL(E)  LAGRANGIAN ASYMMETRY   SQCDF  MICIT   DAMP
   1     -230.677937677 -0.677937677  0.115047   39    4 3.315E-02  5   0.0000
       ----------START APPROXIMATE SECOND ORDER MCSCF----------
   2     -230.695134858 -0.017197181  0.031601   39    4 3.188E-02  1   0.0000
   3     -230.699291997 -0.004157140  0.013747   55    6 4.047E-03  1   0.0000
   4     -230.699906889 -0.000614892  0.004036   66    6 5.377E-04  1   0.0000
   5     -230.700010354 -0.000103465  0.003094   66    6 1.184E-05  1   0.0000
   6     -230.700025360 -0.000015006  0.001291   46    6 1.467E-05  1   0.0000
   7     -230.700032265 -0.000006905  0.000454   66    6 3.400E-06  1   0.0000
   8     -230.700033163 -0.000000899  0.000208   36    6 3.649E-07  1   0.0000
   9     -230.700033301 -0.000000138  0.000090   53    6 5.641E-08  1   0.0000
  10     -230.700033324 -0.000000023  0.000031   53    6 1.664E-08  1   0.0000
  11     -230.700033329 -0.000000005  0.000017   66    6 1.181E-09  1   0.0000
  12     -230.700033329 -0.000000001  0.000007   49    6 1.549E-10  1   0.0000

          --------------------
          LAGRANGIAN CONVERGED
          --------------------

 FINAL MCSCF ENERGY IS     -230.7000333293 AFTER  12 ITERATIONS

 -MCCI- BASED ON OPTIMIZED ORBITALS
 ----------------------------------

 PLEASE NOTE: IF THE ACTIVE ORBITALS ARE CANONICALIZED BELOW,
 THE FOLLOWING CI EXPANSION COEFFICIENTS AND THE DENSITY DO NOT
 CORRESPOND TO THE PRINTED ORBITALS.  THE PRINTED EXPANSIONS MATCH
 THE ORBITALS USED DURING THE LAST ITERATION.  IF YOU WISH TO SEE
 CI EXPANSIONS BASED ON THE CANONICAL (OR NATURAL) ORBITALS, YOU
 MUST RUN A CI CALCULATION WITH THAT ORBITAL CHOICE READ IN $VEC.

 STATE #    1  ENERGY =    -230.700033329

      CSF      COEF    OCCUPANCY (IGNORING CORE)
      ---      ----    --------- --------- -----
        1    0.936211  222000
        5   -0.150556  220002
       15   -0.056404  121011
       19    0.115025  121011
       36   -0.084501  022020
       54    0.113709  211101
       58   -0.117001  211101
       90    0.074006  112110
       91    0.057035  022110
      129   -0.144053  202200

 STATE #    2  ENERGY =    -230.504548042

      CSF      COEF    OCCUPANCY (IGNORING CORE)
      ---      ----    --------- --------- -----
        2    0.061053  221001
        3   -0.538333  212001
        4   -0.306372  122001
        8   -0.098837  202002
        9    0.073852  112002
       10    0.089476  022002
       11   -0.283659  221010
       18   -0.112952  211011
       19   -0.185998  121011
       31    0.077075  220020
       35   -0.067199  112020
       51    0.549227  221100
       52    0.067662  212100
       58   -0.181340  211101
       59    0.134958  121101
       67   -0.051024  111102
       86   -0.078789  220110
       90    0.097748  112110
       91    0.076129  022110
      126   -0.082793  220200
      129    0.136219  202200
      131   -0.056203  022200
      138   -0.051241  102201

 DENSITY MATRIX OVER ACTIVE MO-S

             1           2           3           4           5

    1    1.9417845
    2    0.0270346   1.9091515
    3    0.0020684   0.0011979   1.8941884
    4   -0.0011336   0.0267801   0.0014858   0.0932391
    5    0.0007151  -0.0024830   0.0224034  -0.0271050   0.0544470
    6    0.0283375  -0.0033899   0.0014017  -0.0008144  -0.0014070

             6

    6    0.1071896

 FORMING THE "STANDARD FOCK OPERATOR" USING INTEGRALS FROM DISK...
    18 FILLED,    6 ACTIVE, AND   42 VIRTUAL ORBITALS  WILL BE CANONICALIZED

          ----------------------
          MCSCF NATURAL ORBITALS
          ----------------------

                      1          2          3          4          5
                  -11.2273   -11.2267   -11.2267   -11.2256   -11.2256
                     A          A          A          A          A   
    1  C  1  S    0.405830   0.191855   0.542416  -0.216285   0.532711
    2  C  1  S    0.009426   0.004726   0.013364  -0.005678   0.013986
    3  C  1  X   -0.000028  -0.000202   0.000180  -0.000101   0.000131
    4  C  1  Y   -0.000049   0.000195   0.000120  -0.000080   0.000265
    5  C  1  Z    0.000000   0.000000   0.000000   0.000000  -0.000000
    6  C  1  S   -0.002869  -0.002181  -0.006169   0.005154  -0.012713
    7  C  1  X    0.000233   0.001376  -0.000800   0.002146  -0.000911
    8  C  1  Y    0.000407  -0.001022  -0.000183   0.000192  -0.003011
    9  C  1  Z    0.000000   0.000000   0.000000   0.000000  -0.000000
   10  C  2  S    0.405813   0.565414   0.105825   0.569715  -0.078273
   11  C  2  S    0.009425   0.013930   0.002607   0.014957  -0.002055
   12  C  2  X    0.000028  -0.000147   0.000227  -0.000152   0.000066
   13  C  2  Y   -0.000049   0.000148   0.000175   0.000277  -0.000012
   14  C  2  Z    0.000000   0.000000   0.000000   0.000000  -0.000000
   15  C  2  S   -0.002867  -0.006430  -0.001204  -0.013591   0.001861
   16  C  2  X   -0.000234   0.000578  -0.001483   0.001412  -0.001855
   17  C  2  Y    0.000407  -0.000338  -0.000982  -0.002965  -0.000555
   18  C  2  Z    0.000000   0.000000   0.000000   0.000000  -0.000000
   19  C  3  S    0.406494   0.374597  -0.436407  -0.352416  -0.454547
   20  C  3  S    0.009442   0.009229  -0.010753  -0.009252  -0.011935
   21  C  3  X    0.000057  -0.000134   0.000156   0.000195   0.000252
   22  C  3  Y   -0.000000   0.000220   0.000188   0.000040  -0.000031
   23  C  3  Z    0.000000   0.000000   0.000000   0.000000  -0.000000
   24  C  3  S   -0.002877  -0.004263   0.004967   0.008407   0.010866
   25  C  3  X   -0.000468   0.000386  -0.000451  -0.002024  -0.002624
   26  C  3  Y    0.000003  -0.001372  -0.001175  -0.001501   0.001167
   27  C  3  Z    0.000000   0.000000   0.000000   0.000000  -0.000000
   28  C  4  S    0.407103  -0.190794  -0.542050  -0.217323   0.533017
   29  C  4  S    0.009457  -0.004701  -0.013356  -0.005707   0.013996
   30  C  4  X    0.000028  -0.000202   0.000180   0.000101  -0.000131
   31  C  4  Y    0.000049   0.000196   0.000120   0.000081  -0.000265
   32  C  4  Z    0.000000   0.000000   0.000000   0.000000  -0.000000
   33  C  4  S   -0.002880   0.002171   0.006171   0.005202  -0.012743
   34  C  4  X   -0.000236   0.001378  -0.000801  -0.002154   0.000918
   35  C  4  Y   -0.000405  -0.001023  -0.000185  -0.000210   0.003023
   36  C  4  Z    0.000000   0.000000   0.000000   0.000000  -0.000000
   37  C  5  S    0.407302  -0.565205  -0.105019   0.569906  -0.079079
   38  C  5  S    0.009462  -0.013927  -0.002588   0.014965  -0.002077
   39  C  5  X   -0.000028  -0.000147   0.000227   0.000152  -0.000066
   40  C  5  Y    0.000049   0.000149   0.000175  -0.000277   0.000013
   41  C  5  Z    0.000000   0.000000   0.000000   0.000000  -0.000000
   42  C  5  S   -0.002887   0.006439   0.001197  -0.013630   0.001898
   43  C  5  X    0.000234   0.000580  -0.001484  -0.001421   0.001861
   44  C  5  Y   -0.000404  -0.000342  -0.000983   0.002982   0.000543
   45  C  5  Z    0.000000   0.000000   0.000000   0.000000  -0.000000
   46  C  6  S    0.406501  -0.373192   0.437312  -0.353797  -0.453723
   47  C  6  S    0.009442  -0.009195   0.010775  -0.009290  -0.011912
   48  C  6  X   -0.000057  -0.000134   0.000156  -0.000196  -0.000251
   49  C  6  Y   -0.000000   0.000220   0.000188  -0.000040   0.000031
   50  C  6  Z    0.000000   0.000000   0.000000   0.000000  -0.000000
   51  C  6  S   -0.002874   0.004245  -0.004977   0.008460   0.010830
   52  C  6  X    0.000469   0.000384  -0.000451   0.002044   0.002610
   53  C  6  Y    0.000003  -0.001373  -0.001174   0.001500  -0.001168
   54  C  6  Z    0.000000   0.000000   0.000000   0.000000  -0.000000
   55  H  7  S   -0.000158  -0.000243  -0.000045  -0.000160   0.000022
   56  H  7  S    0.001164   0.001033   0.000193   0.000636  -0.000088
   57  H  8  S   -0.000158  -0.000161   0.000188   0.000099   0.000128
   58  H  8  S    0.001165   0.000684  -0.000796  -0.000394  -0.000505
   59  H  9  S   -0.000158   0.000082   0.000233   0.000061  -0.000150
   60  H  9  S    0.001167  -0.000348  -0.000989  -0.000241   0.000592
   61  H 10  S   -0.000158   0.000160  -0.000188   0.000099   0.000127
   62  H 10  S    0.001166  -0.000681   0.000798  -0.000393  -0.000506
   63  H 11  S   -0.000158   0.000243   0.000045  -0.000160   0.000022
   64  H 11  S    0.001167  -0.001031  -0.000191   0.000633  -0.000087
   65  H 12  S   -0.000158  -0.000082  -0.000233   0.000061  -0.000149
   66  H 12  S    0.001164   0.000351   0.000990  -0.000242   0.000594

                      6          7          8          9         10
                  -11.2250    -1.1467    -1.0087    -1.0087    -0.8161
                     A          A          A          A          A   
    1  C  1  S   -0.407566  -0.092625  -0.013568   0.128316  -0.099560
    2  C  1  S   -0.011546   0.181839   0.027204  -0.257267   0.202432
    3  C  1  X   -0.000141   0.031486   0.101047  -0.006164  -0.000387
    4  C  1  Y   -0.000244   0.054537  -0.054270  -0.034924  -0.068291
    5  C  1  Z   -0.000000  -0.000000   0.000000  -0.000000   0.000000
    6  C  1  S    0.021861   0.108749   0.020556  -0.194399   0.183125
    7  C  1  X    0.004517   0.004106   0.007915   0.002267  -0.015925
    8  C  1  Y    0.007822   0.007112  -0.004916   0.001958  -0.042208
    9  C  1  Z   -0.000000  -0.000000   0.000000  -0.000000   0.000000
   10  C  2  S    0.407571  -0.092625  -0.117910   0.052407   0.035612
   11  C  2  S    0.011546   0.181838   0.236404  -0.105073  -0.072408
   12  C  2  X   -0.000141  -0.031487   0.025237   0.098037  -0.179571
   13  C  2  Y    0.000244   0.054537   0.049936   0.040885  -0.079171
   14  C  2  Z   -0.000000  -0.000000   0.000000  -0.000000   0.000000
   15  C  2  S   -0.021860   0.108745   0.178632  -0.079396  -0.065500
   16  C  2  X    0.004517  -0.004105   0.004593   0.006833  -0.044504
   17  C  2  Y   -0.007821   0.007109  -0.000350   0.005279  -0.007309
   18  C  2  Z   -0.000000  -0.000000   0.000000  -0.000000   0.000000
   19  C  3  S   -0.406903  -0.092624  -0.104341  -0.075908   0.063948
   20  C  3  S   -0.011528   0.181836   0.209200   0.152193  -0.130024
   21  C  3  X    0.000281  -0.062973  -0.027102  -0.019717  -0.038110
   22  C  3  Y    0.000000  -0.000002  -0.067822   0.093221   0.161287
   23  C  3  Z   -0.000000  -0.000000   0.000000  -0.000000   0.000000
   24  C  3  S    0.021845   0.108747   0.158078   0.115001  -0.117622
   25  C  3  X   -0.009028  -0.008211   0.002300   0.001673  -0.028593
   26  C  3  Y   -0.000002  -0.000000  -0.005510   0.007573   0.034885
   27  C  3  Z   -0.000000  -0.000000   0.000000  -0.000000   0.000000
   28  C  4  S    0.406327  -0.092624   0.013568  -0.128317  -0.099560
   29  C  4  S    0.011513   0.181836  -0.027203   0.257269   0.202432
   30  C  4  X   -0.000140  -0.031487   0.101046  -0.006167   0.000385
   31  C  4  Y   -0.000243  -0.054535  -0.054269  -0.034923   0.068291
   32  C  4  Z   -0.000000  -0.000000   0.000000  -0.000000   0.000000
   33  C  4  S   -0.021830   0.108747  -0.020555   0.194401   0.183124
   34  C  4  X    0.004511  -0.004106   0.007915   0.002267   0.015925
   35  C  4  Y    0.007816  -0.007112  -0.004916   0.001957   0.042209
   36  C  4  Z   -0.000000  -0.000000   0.000000  -0.000000   0.000000
   37  C  5  S   -0.406159  -0.092625   0.117909  -0.052409   0.035612
   38  C  5  S   -0.011509   0.181839  -0.236401   0.105077  -0.072409
   39  C  5  X   -0.000140   0.031486   0.025238   0.098039   0.179572
   40  C  5  Y    0.000243  -0.054537   0.049936   0.040885   0.079173
   41  C  5  Z   -0.000000  -0.000000   0.000000  -0.000000   0.000000
   42  C  5  S    0.021828   0.108747  -0.178632   0.079399  -0.065501
   43  C  5  X    0.004511   0.004105   0.004594   0.006833   0.044506
   44  C  5  Y   -0.007816  -0.007110  -0.000349   0.005280   0.007309
   45  C  5  Z   -0.000000  -0.000000   0.000000  -0.000000   0.000000
   46  C  6  S    0.406938  -0.092626   0.104341   0.075908   0.063948
   47  C  6  S    0.011529   0.181840  -0.209199  -0.152192  -0.130023
   48  C  6  X    0.000281   0.062974  -0.027102  -0.019717   0.038110
   49  C  6  Y   -0.000000   0.000001  -0.067821   0.093223  -0.161289
   50  C  6  Z   -0.000000  -0.000000   0.000000  -0.000000   0.000000
   51  C  6  S   -0.021845   0.108749  -0.158075  -0.115001  -0.117622
   52  C  6  X   -0.009028   0.008210   0.002301   0.001674   0.028592
   53  C  6  Y    0.000003   0.000000  -0.005509   0.007573  -0.034884
   54  C  6  Z   -0.000000  -0.000000   0.000000  -0.000000   0.000000
   55  H  7  S   -0.000228   0.035700   0.070426  -0.031302  -0.040496
   56  H  7  S   -0.000903   0.005129   0.015002  -0.006668  -0.014100
   57  H  8  S    0.000228   0.035700   0.062321   0.045339  -0.072719
   58  H  8  S    0.000903   0.005129   0.013275   0.009658  -0.025318
   59  H  9  S   -0.000228   0.035700  -0.008104   0.076643   0.113218
   60  H  9  S   -0.000904   0.005130  -0.001726   0.016326   0.039417
   61  H 10  S   -0.000228   0.035701  -0.062321  -0.045339  -0.072719
   62  H 10  S   -0.000903   0.005128  -0.013275  -0.009657  -0.025318
   63  H 11  S    0.000228   0.035700  -0.070424   0.031303  -0.040496
   64  H 11  S    0.000904   0.005128  -0.015001   0.006667  -0.014099
   65  H 12  S    0.000228   0.035701   0.008105  -0.076643   0.113218
   66  H 12  S    0.000903   0.005129   0.001726  -0.016326   0.039418

                     11         12         13         14         15
                   -0.8161    -0.7042    -0.6325    -0.6107    -0.5806
                     A          A          A          A          A   
    1  C  1  S    0.016360   0.009178  -0.056334   0.000000  -0.001228
    2  C  1  S   -0.033263  -0.018120   0.121671  -0.000001   0.002934
    3  C  1  X    0.183070   0.096387  -0.064739   0.238012   0.080993
    4  C  1  Y   -0.094437   0.166951  -0.112138  -0.137415  -0.024976
    5  C  1  Z    0.000000   0.000000  -0.000000  -0.000000   0.000000
    6  C  1  S   -0.030092  -0.037329   0.025624   0.000004   0.002498
    7  C  1  X    0.042199   0.036263  -0.079636   0.081075   0.017203
    8  C  1  Y   -0.015917   0.062809  -0.137938  -0.046804  -0.000554
    9  C  1  Z    0.000000   0.000000  -0.000000  -0.000000   0.000000
   10  C  2  S   -0.094401   0.009180   0.056335  -0.000000  -0.017362
   11  C  2  S    0.191942  -0.018124  -0.121673   0.000000   0.041493
   12  C  2  X   -0.035611  -0.096390  -0.064739  -0.238010  -0.101589
   13  C  2  Y   -0.085522   0.166950   0.112126  -0.137418   0.249494
   14  C  2  Z    0.000000   0.000000  -0.000000  -0.000000   0.000000
   15  C  2  S    0.173637  -0.037333  -0.025626   0.000001   0.035359
   16  C  2  X    0.007319  -0.036265  -0.079637  -0.081072  -0.051607
   17  C  2  Y   -0.044512   0.062811   0.137934  -0.046810   0.102887
   18  C  2  Z    0.000000   0.000000  -0.000000  -0.000000   0.000000
   19  C  3  S    0.078042   0.009179  -0.056334   0.000001  -0.016135
   20  C  3  S   -0.158680  -0.018122   0.121672  -0.000001   0.038561
   21  C  3  X   -0.046509  -0.192775   0.129479  -0.000001  -0.247989
   22  C  3  Y   -0.132161  -0.000000   0.000005   0.274832  -0.045857
   23  C  3  Z    0.000000   0.000000  -0.000000  -0.000000   0.000000
   24  C  3  S   -0.143547  -0.037331   0.025624  -0.000000   0.032861
   25  C  3  X   -0.034893  -0.072526   0.159274  -0.000002  -0.106777
   26  C  3  Y   -0.028584  -0.000000   0.000002   0.093618  -0.008422
   27  C  3  Z    0.000000   0.000000  -0.000000  -0.000000   0.000000
   28  C  4  S    0.016360   0.009180   0.056334  -0.000001   0.001228
   29  C  4  S   -0.033265  -0.018123  -0.121671   0.000002  -0.002934
   30  C  4  X   -0.183069  -0.096387  -0.064739   0.238013   0.080990
   31  C  4  Y    0.094435  -0.166950  -0.112135  -0.137413  -0.024971
   32  C  4  Z    0.000000   0.000000  -0.000000  -0.000000   0.000000
   33  C  4  S   -0.030091  -0.037330  -0.025625   0.000001  -0.002497
   34  C  4  X   -0.042200  -0.036264  -0.079635   0.081078   0.017200
   35  C  4  Y    0.015916  -0.062811  -0.137937  -0.046805  -0.000552
   36  C  4  Z    0.000000   0.000000  -0.000000  -0.000000   0.000000
   37  C  5  S   -0.094401   0.009180  -0.056335   0.000001   0.017362
   38  C  5  S    0.191942  -0.018122   0.121673  -0.000002  -0.041494
   39  C  5  X    0.035608   0.096390  -0.064739  -0.238009  -0.101587
   40  C  5  Y    0.085520  -0.166947   0.112129  -0.137423   0.249488
   41  C  5  Z    0.000000   0.000000  -0.000000  -0.000000   0.000000
   42  C  5  S    0.173636  -0.037333   0.025628   0.000002  -0.035363
   43  C  5  X   -0.007321   0.036264  -0.079637  -0.081071  -0.051608
   44  C  5  Y    0.044513  -0.062809   0.137935  -0.046814   0.102886
   45  C  5  Z    0.000000   0.000000  -0.000000  -0.000000   0.000000
   46  C  6  S    0.078041   0.009180   0.056335  -0.000000   0.016135
   47  C  6  S   -0.158677  -0.018124  -0.121672   0.000001  -0.038561
   48  C  6  X    0.046508   0.192779   0.129475  -0.000002  -0.247991
   49  C  6  Y    0.132163  -0.000001   0.000005   0.274834  -0.045853
   50  C  6  Z    0.000000   0.000000  -0.000000  -0.000000   0.000000
   51  C  6  S   -0.143543  -0.037331  -0.025625  -0.000005  -0.032857
   52  C  6  X    0.034895   0.072529   0.159274  -0.000004  -0.106778
   53  C  6  Y    0.028584  -0.000000   0.000003   0.093618  -0.008421
   54  C  6  Z    0.000000   0.000000  -0.000000  -0.000000   0.000000
   55  H  7  S    0.107350  -0.111177  -0.140454   0.000001  -0.150716
   56  H  7  S    0.037376  -0.064065  -0.055915  -0.000001  -0.114507
   57  H  8  S   -0.088748  -0.111174   0.140456   0.000000  -0.140056
   58  H  8  S   -0.030899  -0.064064   0.055918   0.000000  -0.106410
   59  H  9  S   -0.018605  -0.111176  -0.140458   0.000002   0.010657
   60  H  9  S   -0.006477  -0.064064  -0.055918  -0.000002   0.008098
   61  H 10  S   -0.088746  -0.111177  -0.140455   0.000000   0.140057
   62  H 10  S   -0.030898  -0.064066  -0.055916  -0.000001   0.106410
   63  H 11  S    0.107349  -0.111174   0.140455  -0.000004   0.150712
   64  H 11  S    0.037375  -0.064065   0.055917  -0.000001   0.114505
   65  H 12  S   -0.018603  -0.111175   0.140460   0.000000  -0.010655
   66  H 12  S   -0.006477  -0.064065   0.055919   0.000002  -0.008096

                     16         17         18         19         20
                   -0.5806    -0.4816    -0.4816     1.9575     1.8944
                     A          A          A          A          A   
    1  C  1  S   -0.019341  -0.004175  -0.000082  -0.000000   0.000000
    2  C  1  S    0.046223   0.010468   0.000206  -0.000000   0.000000
    3  C  1  X    0.144078   0.116166  -0.223057  -0.000000   0.000000
    4  C  1  Y    0.260046   0.190984   0.133848  -0.000000   0.000000
    5  C  1  Z    0.000000   0.000000  -0.000000   0.215809   0.054612
    6  C  1  S    0.039391   0.012635   0.000247  -0.000000   0.000000
    7  C  1  X    0.063156   0.081381  -0.092560  -0.000000   0.000000
    8  C  1  Y    0.111320   0.136692   0.057044  -0.000000   0.000000
    9  C  1  Z    0.000000   0.000000  -0.000000   0.134169   0.043501
   10  C  2  S   -0.008606   0.002016   0.003656  -0.000000   0.000000
   11  C  2  S    0.020568  -0.005054  -0.009168  -0.000000   0.000000
   12  C  2  X   -0.130382  -0.143320   0.206659  -0.000000   0.000000
   13  C  2  Y    0.077473  -0.207378  -0.106695  -0.000000   0.000000
   14  C  2  Z    0.000000   0.000000  -0.000000   0.215810   0.307136
   15  C  2  S    0.017532  -0.006093  -0.011061  -0.000000   0.000000
   16  C  2  X   -0.040278  -0.044021   0.115116  -0.000000   0.000000
   17  C  2  Y    0.042519  -0.114126  -0.094405  -0.000000   0.000000
   18  C  2  Z    0.000000   0.000000  -0.000000   0.134169   0.244656
   19  C  3  S    0.010733   0.002159  -0.003575  -0.000000   0.000000
   20  C  3  S   -0.025650  -0.005413   0.008964  -0.000000   0.000000
   21  C  3  X    0.164966   0.115540  -0.191345  -0.000000   0.000000
   22  C  3  Y   -0.068934   0.222698   0.134473  -0.000000   0.000000
   23  C  3  Z    0.000000   0.000000  -0.000000   0.215807   0.252521
   24  C  3  S   -0.021862  -0.006531   0.010816  -0.000000   0.000000
   25  C  3  X    0.071033   0.082238  -0.136193  -0.000000   0.000000
   26  C  3  Y   -0.012659   0.093057   0.056189  -0.000000   0.000000
   27  C  3  Z    0.000000   0.000000  -0.000000   0.134167   0.201150
   28  C  4  S    0.019341  -0.004174  -0.000082  -0.000000   0.000000
   29  C  4  S   -0.046222   0.010467   0.000206  -0.000000   0.000000
   30  C  4  X    0.144083  -0.116160   0.223058  -0.000000   0.000000
   31  C  4  Y    0.260049  -0.190981  -0.133852  -0.000000   0.000000
   32  C  4  Z    0.000000   0.000000  -0.000000   0.215805  -0.054616
   33  C  4  S   -0.039390   0.012627   0.000251  -0.000000   0.000000
   34  C  4  X    0.063159  -0.081375   0.092558  -0.000000   0.000000
   35  C  4  Y    0.111322  -0.136683  -0.057049  -0.000000   0.000000
   36  C  4  Z    0.000000   0.000000  -0.000000   0.134167  -0.043504
   37  C  5  S    0.008606   0.002016   0.003656  -0.000000   0.000000
   38  C  5  S   -0.020568  -0.005057  -0.009168  -0.000000   0.000000
   39  C  5  X   -0.130388   0.143315  -0.206661  -0.000000   0.000000
   40  C  5  Y    0.077471   0.207382   0.106697  -0.000000   0.000000
   41  C  5  Z    0.000000   0.000000  -0.000000   0.215808  -0.307133
   42  C  5  S   -0.017530  -0.006091  -0.011064  -0.000000   0.000000
   43  C  5  X   -0.040279   0.044022  -0.115119  -0.000000   0.000000
   44  C  5  Y    0.042520   0.114125   0.094409  -0.000000   0.000000
   45  C  5  Z    0.000000   0.000000  -0.000000   0.134167  -0.244654
   46  C  6  S   -0.010732   0.002158  -0.003574  -0.000000   0.000000
   47  C  6  S    0.025649  -0.005412   0.008961  -0.000000   0.000000
   48  C  6  X    0.164969  -0.115540   0.191339  -0.000000   0.000000
   49  C  6  Y   -0.068931  -0.222698  -0.134472  -0.000000   0.000000
   50  C  6  Z    0.000000   0.000000  -0.000000   0.215809  -0.252521
   51  C  6  S    0.021860  -0.006538   0.010814  -0.000000   0.000000
   52  C  6  X    0.071035  -0.082243   0.136193  -0.000000   0.000000
   53  C  6  Y   -0.012656  -0.093053  -0.056187  -0.000000   0.000000
   54  C  6  Z    0.000000   0.000000  -0.000000   0.134169  -0.201149
   55  H  7  S   -0.074711   0.081968   0.148642  -0.000000   0.000000
   56  H  7  S   -0.056762   0.063300   0.114794  -0.000000   0.000000
   57  H  8  S    0.093168   0.087744  -0.145310  -0.000000   0.000000
   58  H  8  S    0.070785   0.067763  -0.112222  -0.000000   0.000000
   59  H  9  S    0.167877  -0.169711  -0.003335  -0.000000   0.000000
   60  H  9  S    0.127547  -0.131068  -0.002576  -0.000000   0.000000
   61  H 10  S   -0.093170   0.087745  -0.145307  -0.000000   0.000000
   62  H 10  S   -0.070786   0.067763  -0.112217  -0.000000   0.000000
   63  H 11  S    0.074712   0.081970   0.148644  -0.000000   0.000000
   64  H 11  S    0.056763   0.063306   0.114796  -0.000000   0.000000
   65  H 12  S   -0.167873  -0.169715  -0.003333  -0.000000   0.000000
   66  H 12  S   -0.127545  -0.131066  -0.002575  -0.000000   0.000000

                     21         22         23         24
                    1.8944     0.1068     0.1068     0.0402
                     A          A          A          A   
    1  C  1  S   -0.000000  -0.000000   0.000000   0.000000
    2  C  1  S   -0.000000  -0.000000   0.000000   0.000000
    3  C  1  X   -0.000000  -0.000000   0.000000   0.000000
    4  C  1  Y   -0.000000  -0.000000   0.000000   0.000000
    5  C  1  Z   -0.323116   0.443747  -0.060512  -0.379526
    6  C  1  S   -0.000000  -0.000000   0.000000   0.000000
    7  C  1  X   -0.000000  -0.000000   0.000000   0.000000
    8  C  1  Y   -0.000000  -0.000000   0.000000   0.000000
    9  C  1  Z   -0.257386   0.361438  -0.049285  -0.297955
   10  C  2  S   -0.000000  -0.000000   0.000000   0.000000
   11  C  2  S   -0.000000  -0.000000   0.000000   0.000000
   12  C  2  X   -0.000000  -0.000000   0.000000   0.000000
   13  C  2  Y   -0.000000  -0.000000   0.000000   0.000000
   14  C  2  Z   -0.114259  -0.169465   0.414556   0.379530
   15  C  2  S   -0.000000  -0.000000   0.000000   0.000000
   16  C  2  X   -0.000000  -0.000000   0.000000   0.000000
   17  C  2  Y   -0.000000  -0.000000   0.000000   0.000000
   18  C  2  Z   -0.091016  -0.138031   0.337654   0.297950
   19  C  3  S   -0.000000  -0.000000   0.000000   0.000000
   20  C  3  S   -0.000000  -0.000000   0.000000   0.000000
   21  C  3  X   -0.000000  -0.000000   0.000000   0.000000
   22  C  3  Y   -0.000000  -0.000000   0.000000   0.000000
   23  C  3  Z    0.208855  -0.274281  -0.354044  -0.379527
   24  C  3  S   -0.000000  -0.000000   0.000000   0.000000
   25  C  3  X   -0.000000  -0.000000   0.000000   0.000000
   26  C  3  Y   -0.000000  -0.000000   0.000000   0.000000
   27  C  3  Z    0.166369  -0.223402  -0.288367  -0.297948
   28  C  4  S   -0.000000  -0.000000   0.000000   0.000000
   29  C  4  S   -0.000000  -0.000000   0.000000   0.000000
   30  C  4  X   -0.000000  -0.000000   0.000000   0.000000
   31  C  4  Y   -0.000000  -0.000000   0.000000   0.000000
   32  C  4  Z    0.323118   0.443750  -0.060515   0.379521
   33  C  4  S   -0.000000  -0.000000   0.000000   0.000000
   34  C  4  X   -0.000000  -0.000000   0.000000   0.000000
   35  C  4  Y   -0.000000  -0.000000   0.000000   0.000000
   36  C  4  Z    0.257388   0.361436  -0.049293   0.297950
   37  C  5  S   -0.000000  -0.000000   0.000000   0.000000
   38  C  5  S   -0.000000  -0.000000   0.000000   0.000000
   39  C  5  X   -0.000000  -0.000000   0.000000   0.000000
   40  C  5  Y   -0.000000  -0.000000   0.000000   0.000000
   41  C  5  Z    0.114263  -0.169472   0.414552  -0.379532
   42  C  5  S   -0.000000  -0.000000   0.000000   0.000000
   43  C  5  X   -0.000000  -0.000000   0.000000   0.000000
   44  C  5  Y   -0.000000  -0.000000   0.000000   0.000000
   45  C  5  Z    0.091021  -0.138033   0.337665  -0.297944
   46  C  6  S   -0.000000  -0.000000   0.000000   0.000000
   47  C  6  S   -0.000000  -0.000000   0.000000   0.000000
   48  C  6  X   -0.000000  -0.000000   0.000000   0.000000
   49  C  6  Y   -0.000000  -0.000000   0.000000   0.000000
   50  C  6  Z   -0.208854  -0.274279  -0.354038   0.379534
   51  C  6  S   -0.000000  -0.000000   0.000000   0.000000
   52  C  6  X   -0.000000  -0.000000   0.000000   0.000000
   53  C  6  Y   -0.000000  -0.000000   0.000000   0.000000
   54  C  6  Z   -0.166369  -0.223406  -0.288375   0.297946
   55  H  7  S   -0.000000  -0.000000   0.000000   0.000000
   56  H  7  S   -0.000000  -0.000000   0.000000   0.000000
   57  H  8  S   -0.000000  -0.000000   0.000000   0.000000
   58  H  8  S   -0.000000  -0.000000   0.000000   0.000000
   59  H  9  S   -0.000000  -0.000000   0.000000   0.000000
   60  H  9  S   -0.000000  -0.000000   0.000000   0.000000
   61  H 10  S   -0.000000  -0.000000   0.000000   0.000000
   62  H 10  S   -0.000000  -0.000000   0.000000   0.000000
   63  H 11  S   -0.000000  -0.000000   0.000000   0.000000
   64  H 11  S   -0.000000  -0.000000   0.000000   0.000000
   65  H 12  S   -0.000000  -0.000000   0.000000   0.000000
   66  H 12  S   -0.000000  -0.000000   0.000000   0.000000

          ------------------------
          MCSCF OPTIMIZED ORBITALS
          ------------------------

                      1          2          3          4          5
                  -11.2273   -11.2267   -11.2267   -11.2256   -11.2256
                     A          A          A          A          A   
    1  C  1  S    0.405830   0.191855   0.542416  -0.216285   0.532711
    2  C  1  S    0.009426   0.004726   0.013364  -0.005678   0.013986
    3  C  1  X   -0.000028  -0.000202   0.000180  -0.000101   0.000131
    4  C  1  Y   -0.000049   0.000195   0.000120  -0.000080   0.000265
    5  C  1  Z    0.000000   0.000000   0.000000   0.000000  -0.000000
    6  C  1  S   -0.002869  -0.002181  -0.006169   0.005154  -0.012713
    7  C  1  X    0.000233   0.001376  -0.000800   0.002146  -0.000911
    8  C  1  Y    0.000407  -0.001022  -0.000183   0.000192  -0.003011
    9  C  1  Z    0.000000   0.000000   0.000000   0.000000  -0.000000
   10  C  2  S    0.405813   0.565414   0.105825   0.569715  -0.078273
   11  C  2  S    0.009425   0.013930   0.002607   0.014957  -0.002055
   12  C  2  X    0.000028  -0.000147   0.000227  -0.000152   0.000066
   13  C  2  Y   -0.000049   0.000148   0.000175   0.000277  -0.000012
   14  C  2  Z    0.000000   0.000000   0.000000   0.000000  -0.000000
   15  C  2  S   -0.002867  -0.006430  -0.001204  -0.013591   0.001861
   16  C  2  X   -0.000234   0.000578  -0.001483   0.001412  -0.001855
   17  C  2  Y    0.000407  -0.000338  -0.000982  -0.002965  -0.000555
   18  C  2  Z    0.000000   0.000000   0.000000   0.000000  -0.000000
   19  C  3  S    0.406494   0.374597  -0.436407  -0.352416  -0.454547
   20  C  3  S    0.009442   0.009229  -0.010753  -0.009252  -0.011935
   21  C  3  X    0.000057  -0.000134   0.000156   0.000195   0.000252
   22  C  3  Y   -0.000000   0.000220   0.000188   0.000040  -0.000031
   23  C  3  Z    0.000000   0.000000   0.000000   0.000000  -0.000000
   24  C  3  S   -0.002877  -0.004263   0.004967   0.008407   0.010866
   25  C  3  X   -0.000468   0.000386  -0.000451  -0.002024  -0.002624
   26  C  3  Y    0.000003  -0.001372  -0.001175  -0.001501   0.001167
   27  C  3  Z    0.000000   0.000000   0.000000   0.000000  -0.000000
   28  C  4  S    0.407103  -0.190794  -0.542050  -0.217323   0.533017
   29  C  4  S    0.009457  -0.004701  -0.013356  -0.005707   0.013996
   30  C  4  X    0.000028  -0.000202   0.000180   0.000101  -0.000131
   31  C  4  Y    0.000049   0.000196   0.000120   0.000081  -0.000265
   32  C  4  Z    0.000000   0.000000   0.000000   0.000000  -0.000000
   33  C  4  S   -0.002880   0.002171   0.006171   0.005202  -0.012743
   34  C  4  X   -0.000236   0.001378  -0.000801  -0.002154   0.000918
   35  C  4  Y   -0.000405  -0.001023  -0.000185  -0.000210   0.003023
   36  C  4  Z    0.000000   0.000000   0.000000   0.000000  -0.000000
   37  C  5  S    0.407302  -0.565205  -0.105019   0.569906  -0.079079
   38  C  5  S    0.009462  -0.013927  -0.002588   0.014965  -0.002077
   39  C  5  X   -0.000028  -0.000147   0.000227   0.000152  -0.000066
   40  C  5  Y    0.000049   0.000149   0.000175  -0.000277   0.000013
   41  C  5  Z    0.000000   0.000000   0.000000   0.000000  -0.000000
   42  C  5  S   -0.002887   0.006439   0.001197  -0.013630   0.001898
   43  C  5  X    0.000234   0.000580  -0.001484  -0.001421   0.001861
   44  C  5  Y   -0.000404  -0.000342  -0.000983   0.002982   0.000543
   45  C  5  Z    0.000000   0.000000   0.000000   0.000000  -0.000000
   46  C  6  S    0.406501  -0.373192   0.437312  -0.353797  -0.453723
   47  C  6  S    0.009442  -0.009195   0.010775  -0.009290  -0.011912
   48  C  6  X   -0.000057  -0.000134   0.000156  -0.000196  -0.000251
   49  C  6  Y   -0.000000   0.000220   0.000188  -0.000040   0.000031
   50  C  6  Z    0.000000   0.000000   0.000000   0.000000  -0.000000
   51  C  6  S   -0.002874   0.004245  -0.004977   0.008460   0.010830
   52  C  6  X    0.000469   0.000384  -0.000451   0.002044   0.002610
   53  C  6  Y    0.000003  -0.001373  -0.001174   0.001500  -0.001168
   54  C  6  Z    0.000000   0.000000   0.000000   0.000000  -0.000000
   55  H  7  S   -0.000158  -0.000243  -0.000045  -0.000160   0.000022
   56  H  7  S    0.001164   0.001033   0.000193   0.000636  -0.000088
   57  H  8  S   -0.000158  -0.000161   0.000188   0.000099   0.000128
   58  H  8  S    0.001165   0.000684  -0.000796  -0.000394  -0.000505
   59  H  9  S   -0.000158   0.000082   0.000233   0.000061  -0.000150
   60  H  9  S    0.001167  -0.000348  -0.000989  -0.000241   0.000592
   61  H 10  S   -0.000158   0.000160  -0.000188   0.000099   0.000127
   62  H 10  S    0.001166  -0.000681   0.000798  -0.000393  -0.000506
   63  H 11  S   -0.000158   0.000243   0.000045  -0.000160   0.000022
   64  H 11  S    0.001167  -0.001031  -0.000191   0.000633  -0.000087
   65  H 12  S   -0.000158  -0.000082  -0.000233   0.000061  -0.000149
   66  H 12  S    0.001164   0.000351   0.000990  -0.000242   0.000594

                      6          7          8          9         10
                  -11.2250    -1.1467    -1.0087    -1.0087    -0.8161
                     A          A          A          A          A   
    1  C  1  S   -0.407566  -0.092625  -0.013568   0.128316  -0.099560
    2  C  1  S   -0.011546   0.181839   0.027204  -0.257267   0.202432
    3  C  1  X   -0.000141   0.031486   0.101047  -0.006164  -0.000387
    4  C  1  Y   -0.000244   0.054537  -0.054270  -0.034924  -0.068291
    5  C  1  Z   -0.000000  -0.000000   0.000000  -0.000000   0.000000
    6  C  1  S    0.021861   0.108749   0.020556  -0.194399   0.183125
    7  C  1  X    0.004517   0.004106   0.007915   0.002267  -0.015925
    8  C  1  Y    0.007822   0.007112  -0.004916   0.001958  -0.042208
    9  C  1  Z   -0.000000  -0.000000   0.000000  -0.000000   0.000000
   10  C  2  S    0.407571  -0.092625  -0.117910   0.052407   0.035612
   11  C  2  S    0.011546   0.181838   0.236404  -0.105073  -0.072408
   12  C  2  X   -0.000141  -0.031487   0.025237   0.098037  -0.179571
   13  C  2  Y    0.000244   0.054537   0.049936   0.040885  -0.079171
   14  C  2  Z   -0.000000  -0.000000   0.000000  -0.000000   0.000000
   15  C  2  S   -0.021860   0.108745   0.178632  -0.079396  -0.065500
   16  C  2  X    0.004517  -0.004105   0.004593   0.006833  -0.044504
   17  C  2  Y   -0.007821   0.007109  -0.000350   0.005279  -0.007309
   18  C  2  Z   -0.000000  -0.000000   0.000000  -0.000000   0.000000
   19  C  3  S   -0.406903  -0.092624  -0.104341  -0.075908   0.063948
   20  C  3  S   -0.011528   0.181836   0.209200   0.152193  -0.130024
   21  C  3  X    0.000281  -0.062973  -0.027102  -0.019717  -0.038110
   22  C  3  Y    0.000000  -0.000002  -0.067822   0.093221   0.161287
   23  C  3  Z   -0.000000  -0.000000   0.000000  -0.000000   0.000000
   24  C  3  S    0.021845   0.108747   0.158078   0.115001  -0.117622
   25  C  3  X   -0.009028  -0.008211   0.002300   0.001673  -0.028593
   26  C  3  Y   -0.000002  -0.000000  -0.005510   0.007573   0.034885
   27  C  3  Z   -0.000000  -0.000000   0.000000  -0.000000   0.000000
   28  C  4  S    0.406327  -0.092624   0.013568  -0.128317  -0.099560
   29  C  4  S    0.011513   0.181836  -0.027203   0.257269   0.202432
   30  C  4  X   -0.000140  -0.031487   0.101046  -0.006167   0.000385
   31  C  4  Y   -0.000243  -0.054535  -0.054269  -0.034923   0.068291
   32  C  4  Z   -0.000000  -0.000000   0.000000  -0.000000   0.000000
   33  C  4  S   -0.021830   0.108747  -0.020555   0.194401   0.183124
   34  C  4  X    0.004511  -0.004106   0.007915   0.002267   0.015925
   35  C  4  Y    0.007816  -0.007112  -0.004916   0.001957   0.042209
   36  C  4  Z   -0.000000  -0.000000   0.000000  -0.000000   0.000000
   37  C  5  S   -0.406159  -0.092625   0.117909  -0.052409   0.035612
   38  C  5  S   -0.011509   0.181839  -0.236401   0.105077  -0.072409
   39  C  5  X   -0.000140   0.031486   0.025238   0.098039   0.179572
   40  C  5  Y    0.000243  -0.054537   0.049936   0.040885   0.079173
   41  C  5  Z   -0.000000  -0.000000   0.000000  -0.000000   0.000000
   42  C  5  S    0.021828   0.108747  -0.178632   0.079399  -0.065501
   43  C  5  X    0.004511   0.004105   0.004594   0.006833   0.044506
   44  C  5  Y   -0.007816  -0.007110  -0.000349   0.005280   0.007309
   45  C  5  Z   -0.000000  -0.000000   0.000000  -0.000000   0.000000
   46  C  6  S    0.406938  -0.092626   0.104341   0.075908   0.063948
   47  C  6  S    0.011529   0.181840  -0.209199  -0.152192  -0.130023
   48  C  6  X    0.000281   0.062974  -0.027102  -0.019717   0.038110
   49  C  6  Y   -0.000000   0.000001  -0.067821   0.093223  -0.161289
   50  C  6  Z   -0.000000  -0.000000   0.000000  -0.000000   0.000000
   51  C  6  S   -0.021845   0.108749  -0.158075  -0.115001  -0.117622
   52  C  6  X   -0.009028   0.008210   0.002301   0.001674   0.028592
   53  C  6  Y    0.000003   0.000000  -0.005509   0.007573  -0.034884
   54  C  6  Z   -0.000000  -0.000000   0.000000  -0.000000   0.000000
   55  H  7  S   -0.000228   0.035700   0.070426  -0.031302  -0.040496
   56  H  7  S   -0.000903   0.005129   0.015002  -0.006668  -0.014100
   57  H  8  S    0.000228   0.035700   0.062321   0.045339  -0.072719
   58  H  8  S    0.000903   0.005129   0.013275   0.009658  -0.025318
   59  H  9  S   -0.000228   0.035700  -0.008104   0.076643   0.113218
   60  H  9  S   -0.000904   0.005130  -0.001726   0.016326   0.039417
   61  H 10  S   -0.000228   0.035701  -0.062321  -0.045339  -0.072719
   62  H 10  S   -0.000903   0.005128  -0.013275  -0.009657  -0.025318
   63  H 11  S    0.000228   0.035700  -0.070424   0.031303  -0.040496
   64  H 11  S    0.000904   0.005128  -0.015001   0.006667  -0.014099
   65  H 12  S    0.000228   0.035701   0.008105  -0.076643   0.113218
   66  H 12  S    0.000903   0.005129   0.001726  -0.016326   0.039418

                     11         12         13         14         15
                   -0.8161    -0.7042    -0.6325    -0.6107    -0.5806
                     A          A          A          A          A   
    1  C  1  S    0.016360   0.009178  -0.056334   0.000000  -0.001228
    2  C  1  S   -0.033263  -0.018120   0.121671  -0.000001   0.002934
    3  C  1  X    0.183070   0.096387  -0.064739   0.238012   0.080993
    4  C  1  Y   -0.094437   0.166951  -0.112138  -0.137415  -0.024976
    5  C  1  Z    0.000000   0.000000  -0.000000  -0.000000   0.000000
    6  C  1  S   -0.030092  -0.037329   0.025624   0.000004   0.002498
    7  C  1  X    0.042199   0.036263  -0.079636   0.081075   0.017203
    8  C  1  Y   -0.015917   0.062809  -0.137938  -0.046804  -0.000554
    9  C  1  Z    0.000000   0.000000  -0.000000  -0.000000   0.000000
   10  C  2  S   -0.094401   0.009180   0.056335  -0.000000  -0.017362
   11  C  2  S    0.191942  -0.018124  -0.121673   0.000000   0.041493
   12  C  2  X   -0.035611  -0.096390  -0.064739  -0.238010  -0.101589
   13  C  2  Y   -0.085522   0.166950   0.112126  -0.137418   0.249494
   14  C  2  Z    0.000000   0.000000  -0.000000  -0.000000   0.000000
   15  C  2  S    0.173637  -0.037333  -0.025626   0.000001   0.035359
   16  C  2  X    0.007319  -0.036265  -0.079637  -0.081072  -0.051607
   17  C  2  Y   -0.044512   0.062811   0.137934  -0.046810   0.102887
   18  C  2  Z    0.000000   0.000000  -0.000000  -0.000000   0.000000
   19  C  3  S    0.078042   0.009179  -0.056334   0.000001  -0.016135
   20  C  3  S   -0.158680  -0.018122   0.121672  -0.000001   0.038561
   21  C  3  X   -0.046509  -0.192775   0.129479  -0.000001  -0.247989
   22  C  3  Y   -0.132161  -0.000000   0.000005   0.274832  -0.045857
   23  C  3  Z    0.000000   0.000000  -0.000000  -0.000000   0.000000
   24  C  3  S   -0.143547  -0.037331   0.025624  -0.000000   0.032861
   25  C  3  X   -0.034893  -0.072526   0.159274  -0.000002  -0.106777
   26  C  3  Y   -0.028584  -0.000000   0.000002   0.093618  -0.008422
   27  C  3  Z    0.000000   0.000000  -0.000000  -0.000000   0.000000
   28  C  4  S    0.016360   0.009180   0.056334  -0.000001   0.001228
   29  C  4  S   -0.033265  -0.018123  -0.121671   0.000002  -0.002934
   30  C  4  X   -0.183069  -0.096387  -0.064739   0.238013   0.080990
   31  C  4  Y    0.094435  -0.166950  -0.112135  -0.137413  -0.024971
   32  C  4  Z    0.000000   0.000000  -0.000000  -0.000000   0.000000
   33  C  4  S   -0.030091  -0.037330  -0.025625   0.000001  -0.002497
   34  C  4  X   -0.042200  -0.036264  -0.079635   0.081078   0.017200
   35  C  4  Y    0.015916  -0.062811  -0.137937  -0.046805  -0.000552
   36  C  4  Z    0.000000   0.000000  -0.000000  -0.000000   0.000000
   37  C  5  S   -0.094401   0.009180  -0.056335   0.000001   0.017362
   38  C  5  S    0.191942  -0.018122   0.121673  -0.000002  -0.041494
   39  C  5  X    0.035608   0.096390  -0.064739  -0.238009  -0.101587
   40  C  5  Y    0.085520  -0.166947   0.112129  -0.137423   0.249488
   41  C  5  Z    0.000000   0.000000  -0.000000  -0.000000   0.000000
   42  C  5  S    0.173636  -0.037333   0.025628   0.000002  -0.035363
   43  C  5  X   -0.007321   0.036264  -0.079637  -0.081071  -0.051608
   44  C  5  Y    0.044513  -0.062809   0.137935  -0.046814   0.102886
   45  C  5  Z    0.000000   0.000000  -0.000000  -0.000000   0.000000
   46  C  6  S    0.078041   0.009180   0.056335  -0.000000   0.016135
   47  C  6  S   -0.158677  -0.018124  -0.121672   0.000001  -0.038561
   48  C  6  X    0.046508   0.192779   0.129475  -0.000002  -0.247991
   49  C  6  Y    0.132163  -0.000001   0.000005   0.274834  -0.045853
   50  C  6  Z    0.000000   0.000000  -0.000000  -0.000000   0.000000
   51  C  6  S   -0.143543  -0.037331  -0.025625  -0.000005  -0.032857
   52  C  6  X    0.034895   0.072529   0.159274  -0.000004  -0.106778
   53  C  6  Y    0.028584  -0.000000   0.000003   0.093618  -0.008421
[...]
   13  C  2  Y   -0.370110   0.088245   0.092997   0.147485   0.241833
   14  C  2  Z   -0.000000   0.000000  -0.000000   0.000000   0.000000
   15  C  2  S   -1.430134   0.462151  -1.810540  -2.768977  -1.161101
   16  C  2  X   -0.272946   1.638451  -0.249645   1.808230   0.654380
   17  C  2  Y    1.520487   0.403571   0.432463  -3.046442  -1.337480
   18  C  2  Z   -0.000000   0.000000  -0.000000   0.000000   0.000000
   19  C  3  S    0.002554   0.002307  -0.016099  -0.024054   0.018293
   20  C  3  S   -0.396483  -0.358125  -0.695674  -0.644835   0.490348
   21  C  3  X    0.325032   0.293579   0.107379   0.210977  -0.160426
   22  C  3  Y    0.040032  -0.044316   0.000010  -0.200937  -0.264254
   23  C  3  Z   -0.000000   0.000000  -0.000000   0.000000   0.000000
   24  C  3  S   -1.115340  -1.007369   1.810436   2.390096  -1.817441
   25  C  3  X   -1.133391  -1.023749   0.499356  -3.057673   2.325099
   26  C  3  Y   -1.141703   1.263978  -0.000007   0.066901   0.088056
   27  C  3  Z   -0.000000   0.000000  -0.000000   0.000000   0.000000
   28  C  4  S   -0.000721   0.003365   0.016099  -0.003813  -0.029977
   29  C  4  S    0.111890  -0.522464   0.695641  -0.102228  -0.803613
   30  C  4  X   -0.096441   0.203304  -0.053688  -0.268479   0.167733
   31  C  4  Y   -0.050240   0.377155  -0.092977   0.193623   0.206746
   32  C  4  Z   -0.000000   0.000000  -0.000000   0.000000   0.000000
   33  C  4  S    0.314791  -1.469531  -1.810452   0.378943   2.978589
   34  C  4  X    1.602317  -0.437748  -0.249677  -0.147334  -1.917339
   35  C  4  Y   -0.555737  -1.471702  -0.432525  -0.474663  -3.293085
   36  C  4  Z   -0.000000   0.000000  -0.000000   0.000000   0.000000
   37  C  5  S   -0.003274   0.001059  -0.016099   0.027869   0.011687
   38  C  5  S    0.508384  -0.164290  -0.695692   0.747064   0.313285
   39  C  5  X    0.192485  -0.116558  -0.053684   0.233394  -0.213873
   40  C  5  Y   -0.370114   0.088236   0.092991  -0.147487  -0.241840
   41  C  5  Z   -0.000000   0.000000  -0.000000   0.000000   0.000000
   42  C  5  S    1.430083  -0.462248   1.810520  -2.769020  -1.161158
   43  C  5  X   -0.273021   1.638471  -0.249682  -1.808285  -0.654435
   44  C  5  Y    1.520468   0.403613   0.432461   3.046425   1.337496
   45  C  5  Z   -0.000000   0.000000  -0.000000   0.000000   0.000000
   46  C  6  S   -0.002554  -0.002307   0.016100  -0.024054   0.018292
   47  C  6  S    0.396491   0.358100   0.695705  -0.644836   0.490338
   48  C  6  X    0.325034   0.293578   0.107384  -0.210976   0.160423
   49  C  6  Y    0.040027  -0.044309   0.000004   0.200933   0.264249
   50  C  6  Z   -0.000000   0.000000  -0.000000   0.000000   0.000000
   51  C  6  S    1.115340   1.007457  -1.810561   2.390093  -1.817425
   52  C  6  X   -1.133377  -1.023749   0.499339   3.057692  -2.325080
   53  C  6  Y   -1.141739   1.264005   0.000021  -0.066923  -0.088081
   54  C  6  Z   -0.000000   0.000000  -0.000000   0.000000   0.000000
   55  H  7  S    0.533904  -0.172559   0.473593  -0.622183  -0.260911
   56  H  7  S    0.599005  -0.193610   0.340866  -1.035032  -0.434038
   57  H  8  S    0.416393   0.376099  -0.473582   0.537043  -0.408375
   58  H  8  S    0.467164   0.421960  -0.340862   0.893396  -0.679355
   59  H  9  S   -0.117516   0.548644   0.473602   0.085136   0.669282
   60  H  9  S   -0.131847   0.615553   0.340889   0.141629   1.113386
   61  H 10  S   -0.416386  -0.376109   0.473593   0.537047  -0.408373
   62  H 10  S   -0.467160  -0.421969   0.340866   0.893401  -0.679351
   63  H 11  S   -0.533898   0.172570  -0.473591  -0.622181  -0.260914
   64  H 11  S   -0.599005   0.193604  -0.340868  -1.035023  -0.434045
   65  H 12  S    0.117508  -0.548639  -0.473611   0.085138   0.669288
   66  H 12  S    0.131841  -0.615549  -0.340888   0.141627   1.113391

                     66
                    2.1702
                     A   
    1  C  1  S    0.094077
    2  C  1  S    1.189315
    3  C  1  X    0.028117
    4  C  1  Y    0.048706
    5  C  1  Z    0.000000
    6  C  1  S  -11.677077
    7  C  1  X   -3.663485
    8  C  1  Y   -6.345482
    9  C  1  Z    0.000000
   10  C  2  S   -0.094078
   11  C  2  S   -1.189332
   12  C  2  X    0.028120
   13  C  2  Y   -0.048703
   14  C  2  Z    0.000000
   15  C  2  S   11.677082
   16  C  2  X   -3.663561
   17  C  2  Y    6.345526
   18  C  2  Z    0.000000
   19  C  3  S    0.094077
   20  C  3  S    1.189316
   21  C  3  X   -0.056237
   22  C  3  Y    0.000004
   23  C  3  Z    0.000000
   24  C  3  S  -11.677061
   25  C  3  X    7.327077
   26  C  3  Y    0.000094
   27  C  3  Z    0.000000
   28  C  4  S   -0.094078
   29  C  4  S   -1.189325
   30  C  4  X    0.028117
   31  C  4  Y    0.048707
   32  C  4  Z    0.000000
   33  C  4  S   11.676947
   34  C  4  X   -3.663513
   35  C  4  Y   -6.345458
   36  C  4  Z    0.000000
   37  C  5  S    0.094077
   38  C  5  S    1.189314
   39  C  5  X    0.028125
   40  C  5  Y   -0.048699
   41  C  5  Z    0.000000
   42  C  5  S  -11.677107
   43  C  5  X   -3.663589
   44  C  5  Y    6.345421
   45  C  5  Z    0.000000
   46  C  6  S   -0.094078
   47  C  6  S   -1.189329
   48  C  6  X   -0.056238
   49  C  6  Y    0.000002
   50  C  6  Z    0.000000
   51  C  6  S   11.677128
   52  C  6  X    7.327164
   53  C  6  Y    0.000058
   54  C  6  Z    0.000000
   55  H  7  S    0.488279
   56  H  7  S    1.601287
   57  H  8  S   -0.488265
   58  H  8  S   -1.601248
   59  H  9  S    0.488270
   60  H  9  S    1.601277
   61  H 10  S    0.488276
   62  H 10  S    1.601280
   63  H 11  S   -0.488266
   64  H 11  S   -1.601238
   65  H 12  S   -0.488264
   66  H 12  S   -1.601261
 .....DONE WITH MCSCF ITERATIONS.....
 STEP CPU TIME =     1.14 TOTAL CPU TIME =          1.6 (      0.0 MIN)
 TOTAL WALL CLOCK TIME=          1.6 SECONDS, CPU UTILIZATION IS    99.19%

     ----------------------------------------------------------------
     PROPERTY VALUES FOR THE MCSCF SELF-CONSISTENT FIELD WAVEFUNCTION
     ----------------------------------------------------------------

          -----------------
          ENERGY COMPONENTS
          -----------------

         WAVEFUNCTION NORMALIZATION =       1.0000000000

                ONE ELECTRON ENERGY =    -713.5002816071
                TWO ELECTRON ENERGY =     279.2468660405
           NUCLEAR REPULSION ENERGY =     203.5533822373
                                      ------------------
                       TOTAL ENERGY =    -230.7000333293

 ELECTRON-ELECTRON POTENTIAL ENERGY =     279.2468660405
  NUCLEUS-ELECTRON POTENTIAL ENERGY =    -944.4644798111
   NUCLEUS-NUCLEUS POTENTIAL ENERGY =     203.5533822373
                                      ------------------
             TOTAL POTENTIAL ENERGY =    -461.6642315332
               TOTAL KINETIC ENERGY =     230.9641982039
                 VIRIAL RATIO (V/T) =       1.9988562518

          ---------------------------------------
          MULLIKEN AND LOWDIN POPULATION ANALYSES
          ---------------------------------------

     ATOMIC MULLIKEN POPULATION IN EACH MOLECULAR ORBITAL

                      1          2          3          4          5

                  2.000000   2.000000   2.000000   2.000000   2.000000

    1             0.332104   0.074542   0.592748   0.094512   0.571386
    2             0.332078   0.644038   0.022985   0.653469   0.012714
    3             0.333192   0.282934   0.383851   0.250285   0.416115
    4             0.334191   0.073724   0.591947   0.095416   0.572042
    5             0.334516   0.643560   0.022643   0.653907   0.012969
    6             0.333204   0.280819   0.385443   0.252246   0.414609
    7             0.000119   0.000124   0.000004   0.000055   0.000001
    8             0.000119   0.000054   0.000073   0.000021   0.000035
    9             0.000119   0.000014   0.000113   0.000008   0.000047
   10             0.000119   0.000054   0.000074   0.000021   0.000035
   11             0.000119   0.000123   0.000004   0.000054   0.000001
   12             0.000119   0.000014   0.000114   0.000008   0.000048

                      6          7          8          9         10

                  2.000000   2.000000   2.000000   2.000000   2.000000

    1             0.334465   0.322023   0.080265   0.535874   0.329239
    2             0.334473   0.322013   0.464172   0.151968   0.245839
    3             0.333380   0.322012   0.379786   0.236359   0.273058
    4             0.332436   0.322013   0.080262   0.535883   0.329241
    5             0.332162   0.322018   0.464165   0.151977   0.245844
    6             0.333436   0.322023   0.379778   0.236360   0.273060
    7            -0.000059   0.011316   0.042190   0.008335   0.012612
    8            -0.000059   0.011316   0.033039   0.017486   0.040668
    9            -0.000059   0.011317   0.000559   0.049968   0.098579
   10            -0.000059   0.011316   0.033038   0.017486   0.040668
   11            -0.000059   0.011316   0.042189   0.008335   0.012612
   12            -0.000059   0.011317   0.000559   0.049968   0.098579

                     11         12         13         14         15

                  2.000000   2.000000   2.000000   2.000000   2.000000

    1             0.236192   0.230914   0.206285   0.333331   0.023160
    2             0.319584   0.230920   0.206270   0.333331   0.345628
    3             0.292370   0.230912   0.206278   0.333335   0.301407
    4             0.236190   0.230916   0.206279   0.333334   0.023158
    5             0.319582   0.230913   0.206276   0.333334   0.345614
    6             0.292364   0.230922   0.206272   0.333335   0.301409
    7             0.088627   0.102419   0.127052   0.000000   0.176509
    8             0.060573   0.102415   0.127057   0.000000   0.152424
    9             0.002662   0.102417   0.127059   0.000000   0.000883
   10             0.060570   0.102420   0.127053  -0.000000   0.152427
   11             0.088625   0.102416   0.127055   0.000000   0.176500
   12             0.002662   0.102416   0.127063   0.000000   0.000882

                     16         17         18         19         20

                  2.000000   2.000000   2.000000   1.957503   1.894372

    1             0.423620   0.232655   0.241323   0.326255   0.017537
    2             0.101174   0.239304   0.234666   0.326255   0.554691
    3             0.145383   0.239011   0.234971   0.326247   0.374961
    4             0.423636   0.232640   0.241330   0.326243   0.017540
    5             0.101179   0.239304   0.234674   0.326248   0.554684
    6             0.145387   0.239009   0.234959   0.326254   0.374959
    7             0.043372   0.044931   0.147757   0.000000   0.000000
    8             0.067449   0.051488   0.141208   0.000000   0.000000
    9             0.218991   0.192614   0.000074   0.000000   0.000000
   10             0.067452   0.051488   0.141202   0.000000   0.000000
   11             0.043374   0.044935   0.147763   0.000000   0.000000
   12             0.218983   0.192620   0.000074   0.000000   0.000000

                     21         22         23         24

                  1.894371   0.106782   0.106781   0.040191

    1             0.613914   0.034944   0.000650   0.006699
    2             0.076766   0.005096   0.030497   0.006699
    3             0.256498   0.013350   0.022244   0.006698
    4             0.613924   0.034945   0.000650   0.006698
    5             0.076774   0.005097   0.030497   0.006698
    6             0.256495   0.013350   0.022243   0.006699
    7             0.000000   0.000000   0.000000   0.000000
    8             0.000000   0.000000   0.000000   0.000000
    9             0.000000   0.000000   0.000000   0.000000
   10             0.000000   0.000000   0.000000   0.000000
   11             0.000000   0.000000   0.000000   0.000000
   12             0.000000   0.000000   0.000000   0.000000
 WARNING! MCSCF POPULATIONS SHOWN ABOVE ARE FOR THE NATURAL ORBITALS.
 IGNORE THE ABOVE DATA FOR MCSCF FUNCTIONS WHICH ARE NOT OF -FORS- TYPE.
 THE FOLLOWING POPULATIONS ARE CORRECT FOR ANY MCSCF WAVEFUNCTION.

               ----- POPULATIONS IN EACH AO -----
                             MULLIKEN      LOWDIN
              1  C  1  S      1.99772     1.98917
              2  C  1  S      0.69439     0.54890
              3  C  1  X      0.74944     0.69526
              4  C  1  Y      0.73798     0.67602
              5  C  1  Z      0.54758     0.50981
              6  C  1  S      0.48956     0.40052
              7  C  1  X      0.20667     0.38971
              8  C  1  Y      0.31887     0.41952
              9  C  1  Z      0.45241     0.49019
             10  C  2  S      1.99772     1.98917
             11  C  2  S      0.69439     0.54889
             12  C  2  X      0.74944     0.69525
             13  C  2  Y      0.73798     0.67602
             14  C  2  Z      0.54759     0.50981
             15  C  2  S      0.48956     0.40052
             16  C  2  X      0.20667     0.38971
             17  C  2  Y      0.31887     0.41952
             18  C  2  Z      0.45242     0.49019
             19  C  3  S      1.99772     1.98917
             20  C  3  S      0.69439     0.54890
             21  C  3  X      0.73225     0.66640
             22  C  3  Y      0.75517     0.70487
             23  C  3  Z      0.54758     0.50981
             24  C  3  S      0.48957     0.40052
             25  C  3  X      0.37497     0.43442
             26  C  3  Y      0.15058     0.37481
             27  C  3  Z      0.45241     0.49019
             28  C  4  S      1.99772     1.98917
             29  C  4  S      0.69439     0.54890
             30  C  4  X      0.74944     0.69525
             31  C  4  Y      0.73798     0.67602
             32  C  4  Z      0.54758     0.50981
             33  C  4  S      0.48957     0.40052
             34  C  4  X      0.20668     0.38971
             35  C  4  Y      0.31887     0.41952
             36  C  4  Z      0.45242     0.49019
             37  C  5  S      1.99772     1.98917
             38  C  5  S      0.69439     0.54890
             39  C  5  X      0.74944     0.69525
             40  C  5  Y      0.73798     0.67602
             41  C  5  Z      0.54758     0.50981
             42  C  5  S      0.48956     0.40052
             43  C  5  X      0.20668     0.38971
             44  C  5  Y      0.31888     0.41952
             45  C  5  Z      0.45241     0.49019
             46  C  6  S      1.99772     1.98917
             47  C  6  S      0.69439     0.54889
             48  C  6  X      0.73225     0.66640
             49  C  6  Y      0.75517     0.70487
             50  C  6  Z      0.54759     0.50981
             51  C  6  S      0.48956     0.40052
             52  C  6  X      0.37497     0.43442
             53  C  6  Y      0.15057     0.37481
             54  C  6  Z      0.45241     0.49019
             55  H  7  S      0.53717     0.51641
             56  H  7  S      0.26819     0.36450
             57  H  8  S      0.53717     0.51641
             58  H  8  S      0.26819     0.36451
             59  H  9  S      0.53718     0.51642
             60  H  9  S      0.26819     0.36450
             61  H 10  S      0.53717     0.51641
             62  H 10  S      0.26819     0.36450
             63  H 11  S      0.53717     0.51641
             64  H 11  S      0.26819     0.36451
             65  H 12  S      0.53718     0.51642
             66  H 12  S      0.26819     0.36450

          ----- MULLIKEN ATOMIC OVERLAP POPULATIONS -----
          (OFF-DIAGONAL ELEMENTS NEED TO BE MULTIPLIED BY 2)

             1           2           3           4           5

    1    5.0189826
    2    0.4937056   5.0189722
    3   -0.0577463   0.4937047   5.0189822
    4   -0.0277323  -0.0577411   0.4937088   5.0189745
    5   -0.0577426  -0.0277332  -0.0577435   0.4937096   5.0189800
    6    0.4937078  -0.0577412  -0.0277301  -0.0577449   0.4937026
    7   -0.0248489   0.3761647  -0.0248477   0.0024334   0.0001284
    8    0.0024337  -0.0248477   0.3761629  -0.0248484   0.0024338
    9    0.0001283   0.0024337  -0.0248494   0.3761642  -0.0248494
   10   -0.0248482   0.0024335   0.0001284   0.0024335  -0.0248476
   11    0.0024336   0.0001284   0.0024335  -0.0248482   0.3761628
   12    0.3761635  -0.0248489   0.0024336   0.0001284   0.0024335

             6           7           8           9          10

    6    5.0189772
    7    0.0024334   0.4749593
    8    0.0001283  -0.0004244   0.4749631
    9    0.0024338  -0.0001078  -0.0004244   0.4749640
   10    0.3761627  -0.0001078   0.0000054  -0.0001078   0.4749592
   11   -0.0248483   0.0000054  -0.0001078  -0.0004243  -0.0004242
   12   -0.0248479  -0.0004241  -0.0001078   0.0000054  -0.0004241

            11          12

   11    0.4749604
   12   -0.0001078   0.4749621

          TOTAL MULLIKEN AND LOWDIN ATOMIC POPULATIONS
       ATOM         MULL.POP.    CHARGE          LOW.POP.     CHARGE
    1 C             6.194637   -0.194637         6.119080   -0.119080
    2 C             6.194631   -0.194631         6.119081   -0.119081
    3 C             6.194637   -0.194637         6.119081   -0.119081
    4 C             6.194638   -0.194638         6.119080   -0.119080
    5 C             6.194634   -0.194634         6.119079   -0.119079
    6 C             6.194633   -0.194633         6.119081   -0.119081
    7 H             0.805364    0.194636         0.880919    0.119081
    8 H             0.805367    0.194633         0.880920    0.119080
    9 H             0.805366    0.194634         0.880920    0.119080
   10 H             0.805363    0.194637         0.880919    0.119081
   11 H             0.805364    0.194636         0.880919    0.119081
   12 H             0.805366    0.194634         0.880920    0.119080

          ---------------------
          ELECTROSTATIC MOMENTS
          ---------------------

 POINT   1           X           Y           Z (BOHR)    CHARGE
                 1.317120    2.281347    0.000000       -0.00 (A.U.)
         DX          DY          DZ         /D/  (DEBYE)
    -0.000015   -0.000003    0.000000    0.000015
 ...... END OF PROPERTY EVALUATION ......
 STEP CPU TIME =     0.01 TOTAL CPU TIME =          1.6 (      0.0 MIN)
 TOTAL WALL CLOCK TIME=          1.6 SECONDS, CPU UTILIZATION IS    99.19%
               993043  WORDS OF DYNAMIC MEMORY USED
 EXECUTION OF GAMESS TERMINATED NORMALLY 15:02:48 20-JUN-2024    
 DDI: 263640 bytes (0.3 MB / 0 MWords) used by master data server.

 ----------------------------------------
 CPU timing information for all processes
 ========================================
 0: 1.316 + 0.283 = 1.600
 ----------------------------------------
 ddikick.x: exited gracefully.
----- accounting info -----
Files used on the master node plana were:
-rw-r--r-- 1 barrois users    26892 Jun 20 15:02 /scratch/barrois.258981/benzene_cas.F05
-rw-r--r-- 1 barrois users 16021424 Jun 20 15:02 /scratch/barrois.258981/benzene_cas.F08
-rw-r--r-- 1 barrois users   197712 Jun 20 15:02 /scratch/barrois.258981/benzene_cas.F09
-rw-r--r-- 1 barrois users  2159520 Jun 20 15:02 /scratch/barrois.258981/benzene_cas.F10
-rw-r--r-- 1 barrois users   279728 Jun 20 15:02 /scratch/barrois.258981/benzene_cas.F11
-rw-r--r-- 1 barrois users     3000 Jun 20 15:02 /scratch/barrois.258981/benzene_cas.F12
-rw-r--r-- 1 barrois users   320856 Jun 20 15:02 /scratch/barrois.258981/benzene_cas.F13
-rw-r--r-- 1 barrois users   400008 Jun 20 15:02 /scratch/barrois.258981/benzene_cas.F14
-rw-r--r-- 1 barrois users   182424 Jun 20 15:02 /scratch/barrois.258981/benzene_cas.F15
-rw-r--r-- 1 barrois users   182424 Jun 20 15:02 /scratch/barrois.258981/benzene_cas.F16
-rw-r--r-- 1 barrois users   268080 Jun 20 15:02 /scratch/barrois.258981/benzene_cas.F23
Thu Jun 20 03:02:52 PM CEST 2024
0.0u 0.0s 0:04.81 3.3% 0+0k 56+312io 0pf+0w
