----- GAMESS execution script 'rungms' -----
This job is running on host muhka
under operating system Linux at Wed Apr 24 11:40:50 AM CEST 2024
Available scratch disk space (Kbyte units) at beginning of the job is
Filesystem                        1K-blocks      Used Available Use% Mounted on
/dev/mapper/vg--ctom-lv--scratch 1057840472 106807492 951032980  11% /scratch
GAMESS temporary binary files will be written to /scratch/humbel.256919
GAMESS supplementary output files will be written to /home/humbel/di-aude/gamess/audeprog
Copying input file ./H2_CAS.inp to your run's scratch directory...

 Distributed Data Interface kickoff program.
 Initiating 1 compute processes on 1 nodes to run the following command:
 /home/humbel/fuming/softwares/gamess/2020-R2/gamess.xmvb.x H2_CAS 

          *******************************************************
          *                                                     *
          *          GAMESS VERSION = 30 SEP 2020 (R2)          *
          *                                                     *
          *              doi.org/10.1063/5.0005188              *
          *                                                     *
          **************** 64 BIT LINUX VERSION *****************

  GAMESS HAS BEEN MADE POSSIBLE WITH IMPORTANT CONTRIBUTIONS FROM
  THE FOLLOWING INDIVIDUALS (IN ALPHABETICAL ORDER):

     IVANA ADAMOVIC, CHRISTINE AIKENS, TOMOKO AKAMA,
     YURI ALEXEEV, YURIKO AOKI, POOJA ARORA, TOSHIO ASADA,
     ANDREY ASADCHEV, KIM K. BALDRIDGE, PRADIPTA BANDYOPADHYAY,
     MARIA BARYSZ, ROB BELL, JONATHAN BENTZ, COLLEEN BERTONI,
     JERRY A. BOATZ, BRETT BODE, KURT BRORSEN, KURT R. BRORSEN,
     LAIMUTIS BYTAUTAS, CALEB CARLIN, LAURA CARRINGTON,
     GALINA CHABAN, BENOIT CHAMPAGNE, WEI CHEN, MAHITO CHIBA,
     DAN CHIPMAN, CHEOL HO CHOI, TANNER CULPITT,
     DIPAYAN DATTA, PAUL DAY, ALBERT DEFUSCO,
     NUWAN DESILVA, J. EMILIANO DEUSTUA,
     TIM DUDLEY, MICHEL DUPUIS, STEVEN T. ELBERT,
     DMITRI FEDOROV, ALEX FINDLATER, GRAHAM FLETCHER,
     MARK FREITAG, CHRISTIAN FRIEDL, DAVID GARMER,
     IGOR S. GERASIMOV, KURT GLAESEMANN, MARK S. GORDON,
     JEFFREY GOUR, FENG LONG GU, EMILIE B. GUIDEZ,
     ANASTASIA GUNINA, SHARON HAMMES-SCHIFFER, MASATAKE HARUTA,
     KIMIHIKO HIRAO, YASUHIRO IKABATA, TZVETELIN IORDANOV,
     STEPHAN IRLE, KAZUYA ISHIMURA, JOE IVANIC, FRANK JENSEN,
     JAN H. JENSEN, VISVALDAS KAIRYS, MUNEAKI KAMIYA,
     MICHIO KATOUDA, NAOAKI KAWAKAMI, DAN KEMP, BERNARD KIRTMAN,
     KAZUO KITAURA, MARIUSZ KLOBUKOWSKI, MASATO KOBAYASHI,
     PRAKASHAN KORAMBATH, JACEK KORCHOWIEC, SHIRO KOSEKI,
     KAROL KOWALSKI, JIMMY KROMANN, STANISLAW KUCHARSKI,
     HENRY KURTZ, SAROM SOK LEANG, HUI LI, SHUHUA LI, WEI LI,
     JESSE LUTZ, ALEKSANDR O. LYKHIN, MARCIN MAKOWSKI,
     JOANI MATO, NIKITA MATSUNAGA, BENEDETTA MENNUCCI,
     GRANT MERRILL, NORIYUKI MINEZAWA, VLADIMIR MIRONOV,
     EISAKU MIYOSHI, JOHN A. MONTGOMERY JR., HIROTOSHI MORI,
     JONATHAN MULLIN, MONIKA MUSIAL, SHIGERU NAGASE,
     TAKESHI NAGATA, HIROMI NAKAI, TAKAHITO NAKAJIMA,
     YUYA NAKAJIMA, HARUYUKI NAKANO, HIROYA NAKATA, SEAN NEDD,
     HEATHER NETZLOFF, KIET A. NGUYEN, YOSHIO NISHIMOTO,
     BOSILJKA NJEGIC, RYAN OLSON, MIKE PAK, ROBERTO PEVERATI,
     BUU PHAM, PIOTR PIECUCH, ANNA POMOGAEVA, DAVID POOLE,
     SPENCER PRUITT, OLIVIER QUINET, LUKE ROSKOP,
     KLAUS RUEDENBERG, ANDREW SAND, TOSAPORN SATTASATHUCHANA,
     NOZOMI SAWADA, MICHAEL W. SCHMIDT, PATRICK E. SCHNEIDER,
     JUNJI SEINO, PRACHI SHARMA, JUN SHEN, JIM SHOEMAKER,
     YINAN SHU, DEJUN SI, JONATHAN SKONE, LYUDMILA SLIPCHENKO,
     TONY SMITH, JIE SONG, MARK SPACKMAN, CASPER STEINMANN,
     WALT STEVENS, PEIFENG SU, SHUJUN SU, CHET SWALINA,
     TETSUYA TAKETSUGU, ZHEN TAO, NANDUN THELLAMUREGE
     SEIKEN TOKURA, JACOPO TOMASI, TSUGUKI TOUMA, TAKAO TSUNEDA,
     HIROAKI UMEDA, JORGE LUIS GALVEZ VALLEJO, YALI WANG,
     SIMON WEBB, AARON WEST, THERESA L. WINDUS, MARTA WLOCH,
     PENG XU, KIYOSHI YAGI, SUSUMU YANAGISAWA, YANG YANG,
     SOOHAENG YOO, TAKESHI YOSHIKAWA, FEDERICO ZAHARIEV,
     TOBY ZENG

  WHO ARE SUPPORTED BY THEIR INSTITUTION/UNIVERSITY/COMPANY/GROUP
  (IN ALPHABETICAL ORDER):

     EP ANALYTICS, FACULTES UNIVERSITAIRES NOTRE-DAME DE LA PAIX,
     INSTITUTE FOR MOLECULAR SCIENCE, IOWA STATE UNIVERSITY,
     JACKSON STATE UNIVERSITY, JOHANNES KEPLER UNIVERSITY LINZ,
     KYUSHU UNIVERSITY, MICHIGAN STATE UNIVERSITY,
     MIE UNIVERSITY, MOSCOW STATE UNIVERSITY,
     N. COPERNICUS UNIVERSITY, NAGOYA UNIVERSITY,
     NANJING UNIVERSITY, NAT. INST. OF ADVANCED INDUSTRIAL
     SCIENCE AND TECHNOLOGY, NATIONAL INST. OF STANDARDS AND
     TECHNOLOGY, NESMEYANOV INSTITUTE OF ORGANOELEMENT COMPOUNDS
     OF RUSSIAN ACADEMY OF SCIENCES, OSAKA PREFECTURE UNIVERSITY,
     PENNSYLVANIA STATE UNIVERSITY, TOKYO INSTITUTE OF TECHNOLOGY,
     UNIVERSITY OF AARHUS, UNIVERSITY OF ALBERTA,
     UNIVERSITY OF CALIFORNIA AT SANTA BARBARA,
     UNIVERSITY OF COPENHAGEN, UNIVERSITY OF IOWA,
     UNIVERSITY OF MEMPHIS, UNIVERSITY OF MINNESOTA,
     UNIVERSITY OF NEBRASKA, UNIVERSITY OF NEW ENGLAND,
     UNIVERSITY OF NOTRE DAME, UNIVERSITY OF PISA,
     UNIVERSITY OF SILESIA, UNIVERSITY OF TOKYO,
     UNIVERSITY OF ZURICH, WASEDA UNIVERSITY, YALE UNIVERSITY

  GAMESS SOFTWARE MANAGEMENT TEAM FOR THIS RELEASE:
     MARK S. GORDON (TEAM LEAD),
     BRETT BODE (SENIOR ADVISOR),
     GIUSEPPE BARCA,
     COLLEEN BERTONI,
     KRISTOPHER KEIPERT (ADVISOR),
     SAROM S. LEANG (DEVELOPMENT LEAD),
     BUU PHAM,
     JORGE LUIS GALVEZ VALLEJO (WEBSITE ADMINISTRATOR),
     PENG XU

 EXECUTION OF GAMESS BEGUN 11:40:50 24-APR-2024    

            ECHO OF THE FIRST FEW INPUT CARDS -
 INPUT CARD>!   File created by MacMolPlt 7.4.3                                             
 INPUT CARD>! $CONTRL SCFTYP=NONE CITYP=ALDET RUNTYP=ENERGY                                 
 INPUT CARD>!! $CONTRL SCFTYP=RHF  RUNTYP=ENERGY MAXIT=200 MULT=1                           
 INPUT CARD> $CONTRL SCFTYP=MCSCF  RUNTYP=ENERGY MAXIT=200 MULT=1                           
 INPUT CARD>   MAXIT=90  MULT=1  VBTYP=NONE  $END                                           
 INPUT CARD> $CIDET                                                                         
 INPUT CARD>  NCORE=13 NACT=4 NELS=4 ISTSYM=1 NSTATE=10                                     
 INPUT CARD>  WSTATE(1)=0.0,0.0,0.0,1.0,0.0,0.0,0.0,0.0,0.0,0.0                             
 INPUT CARD> $END                                                                           
 INPUT CARD> $SYSTEM TIMLIM=525600 MEMORY=1000000 $END                                      
 INPUT CARD> $BASIS GBASIS=N31 NGAUSS=6 $END                                                
 INPUT CARD> $GUESS GUESS=MOREAD NORB=2 $END                                                
 INPUT CARD>! NORDER=1 IORDER(37)=38,40,41,42,37,39                                         
 INPUT CARD>                                                                                
 INPUT CARD> $SCF DIRSCF=.TRUE. $END                                                        
 INPUT CARD> $DET                                                                           
 INPUT CARD> PRTTOL=0.  NCORE=0  NACT=2 NELS=2 ISTSYM=1                                     
 INPUT CARD>! PRTTOL=0.  NCORE=7  NACT=2 NELS=2 ISTSYM=6                                    
 INPUT CARD> $END                                                                           
 INPUT CARD> $DATA                                                                          
 INPUT CARD>Title                                                                           
 INPUT CARD>C1                                                                              
 INPUT CARD>H     1.0     0.000 0.000 0.000                                                 
 INPUT CARD>H     1.0     0.000 0.000 0.74                                                  
 INPUT CARD> $END                                                                           
 INPUT CARD> $VEC                                                                           
 INPUT CARD> 1  1 3.26935224E-01 2.71805882E-01 3.26935224E-01 2.71805882E-01               
 INPUT CARD> 2  1 1.22648760E-01 1.71489541E+00-1.22648760E-01-1.71489541E+00               
 INPUT CARD> $END                                                                           
 INPUT CARD>                                                                                
    1000000 WORDS OF MEMORY AVAILABLE

     BASIS OPTIONS
     -------------
     GBASIS=N31          IGAUSS=       6      POLAR=NONE    
     NDFUNC=       0     NFFUNC=       0     DIFFSP=       F
     NPFUNC=       0      DIFFS=       F     BASNAM=        


     RUN TITLE
     ---------
 Title                                                                           

 THE POINT GROUP OF THE MOLECULE IS C1      
 THE ORDER OF THE PRINCIPAL AXIS IS     0

 ATOM      ATOMIC                      COORDINATES (BOHR)
           CHARGE         X                   Y                   Z
 H           1.0     0.0000000000        0.0000000000        0.0000000000
 H           1.0     0.0000000000        0.0000000000        1.3983972309

          INTERNUCLEAR DISTANCES (ANGS.)
          ------------------------------

                1 H          2 H     

   1 H       0.0000000    0.7400000 *
   2 H       0.7400000 *  0.0000000  

  * ... LESS THAN  3.000


     ATOMIC BASIS SET
     ----------------
 THE CONTRACTED PRIMITIVE FUNCTIONS HAVE BEEN UNNORMALIZED
 THE CONTRACTED BASIS FUNCTIONS ARE NOW NORMALIZED TO UNITY

  SHELL TYPE  PRIMITIVE        EXPONENT          CONTRACTION COEFFICIENT(S)

 H         

      1   S       1            18.7311370    0.033494604338
      1   S       2             2.8253944    0.234726953484
      1   S       3             0.6401217    0.813757326146

      2   S       4             0.1612778    1.000000000000

 H         

      3   S       5            18.7311370    0.033494604338
      3   S       6             2.8253944    0.234726953484
      3   S       7             0.6401217    0.813757326146

      4   S       8             0.1612778    1.000000000000

 TOTAL NUMBER OF BASIS SET SHELLS             =    4
 NUMBER OF CARTESIAN GAUSSIAN BASIS FUNCTIONS =    4
 NUMBER OF ELECTRONS                          =    2
 CHARGE OF MOLECULE                           =    0
 SPIN MULTIPLICITY                            =    1
 NUMBER OF OCCUPIED ORBITALS (ALPHA)          =    1
 NUMBER OF OCCUPIED ORBITALS (BETA )          =    1
 TOTAL NUMBER OF ATOMS                        =    2
 THE NUCLEAR REPULSION ENERGY IS        0.7151043909

 THIS MOLECULE IS RECOGNIZED AS BEING LINEAR,
 ORBITAL LZ DEGENERACY TOLERANCE ETOLLZ= 1.00E-06

     $CONTRL OPTIONS
     ---------------
 SCFTYP=MCSCF        RUNTYP=ENERGY       EXETYP=RUN     
 MPLEVL=       0     CITYP =NONE         CCTYP =NONE         VBTYP =NONE    
 DFTTYP=NONE         TDDFT =NONE    
 MULT  =       1     ICHARG=       0     NZVAR =       0     COORD =UNIQUE  
 PP    =NONE         RELWFN=NONE         LOCAL =NONE         NUMGRD=       F
 ISPHER=      -1     NOSYM =       0     MAXIT =      90     UNITS =ANGS    
 PLTORB=       F     MOLPLT=       F     AIMPAC=       F     FRIEND=        
 NPRINT=       7     IREST =       0     GEOM  =INPUT   
 NORMF =       0     NORMP =       0     ITOL  =      20     ICUT  =       9
 INTTYP=BEST         GRDTYP=BEST         QMTTOL= 1.0E-06

     $SYSTEM OPTIONS
     ---------------
  REPLICATED MEMORY=     1000000 WORDS (ON EVERY NODE).
 DISTRIBUTED MEMDDI=           0 MILLION WORDS IN AGGREGATE,
 MEMDDI DISTRIBUTED OVER   1 PROCESSORS IS           0 WORDS/PROCESSOR.
 TOTAL MEMORY REQUESTED ON EACH PROCESSOR=     1000000 WORDS.
 TIMLIM=      525600.00 MINUTES, OR     365.0 DAYS.
 PARALL= F  BALTYP=  DLB     KDIAG=    0  COREFL= F
 MXSEQ2=     300 MXSEQ3=     150  mem10=         0  mem22=         0

 Using Gaussians for PCM contribution to MEP, params: 0.10000E+01 0.10000E-07

          ----------------
          PROPERTIES INPUT
          ----------------

     MOMENTS            FIELD           POTENTIAL          DENSITY
 IEMOM =       1   IEFLD =       0   IEPOT =       0   IEDEN =       0
 WHERE =COMASS     WHERE =NUCLEI     WHERE =NUCLEI     WHERE =NUCLEI  
 OUTPUT=BOTH       OUTPUT=BOTH       OUTPUT=BOTH       OUTPUT=BOTH    
 IEMINT=       0   IEFINT=       0                     IEDINT=       0
                                                       MORB  =       0

     -------------------------------
     INTEGRAL TRANSFORMATION OPTIONS
     -------------------------------
     NWORD  =            0
     CUTOFF = 1.0E-09     MPTRAN =       0
     DIRTRF =       F     AOINTS =DUP     

          ----------------------
          MCSCF INPUT PARAMETERS
          ----------------------
 CONVERGER SELECTION: FOCAS = F  SOSCF = T  FULLNR = F  QUD = F  JACOBI = F
 SECULAR EQUATION METHOD CISTEP = ALDET   
 --- GENERAL INPUT OPTIONS:
 MAXIT =      60  MICIT =       5  ACURCY= 1.000E-05
 DAMP  =   0.000  CANONC=       T  ENGTOL= 1.000E-10
 EKT   =       F  NPUNCH=       2  NWORD =         0
 REGENERATE CI AFTER CONVERGENCE = NONE    
 DIABATIZATION AFTER CONVERGENCE =        F
 --- INPUT FOR SOSCF CONVERGER:
 FORS  =       T  NOFO  =       1

          ----------------------
          INTEGRAL INPUT OPTIONS
          ----------------------
 NOPK  =       1 NORDER=       0 SCHWRZ=       F

     ------------------------------------------
     THE POINT GROUP IS C1 , NAXIS= 0, ORDER= 1
     ------------------------------------------

     DIMENSIONS OF THE SYMMETRY SUBSPACES ARE
 A   =    4

 ..... DONE SETTING UP THE RUN .....
 STEP CPU TIME =     0.02 TOTAL CPU TIME =          0.0 (      0.0 MIN)
 TOTAL WALL CLOCK TIME=          0.1 SECONDS, CPU UTILIZATION IS    31.90%

          ********************
          1 ELECTRON INTEGRALS
          ********************
 TIME TO DO   DIPOLE INTEGRALS=      0.00
 ...... END OF ONE-ELECTRON INTEGRALS ......
 STEP CPU TIME =     0.00 TOTAL CPU TIME =          0.0 (      0.0 MIN)
 TOTAL WALL CLOCK TIME=          0.1 SECONDS, CPU UTILIZATION IS    33.81%

          -------------
          GUESS OPTIONS
          -------------
          GUESS =MOREAD            NORB  =       2          NORDER=       0
          MIX   =       F          PRTMO =       F          PUNMO =       F
          TOLZ  = 1.0E-08          TOLE  = 1.0E-05
          SYMDEN=       F          PURIFY=       F

 INITIAL GUESS ORBITALS GENERATED BY MOREAD   ROUTINE.

 SYMMETRIES FOR INITIAL GUESS ORBITALS FOLLOW.   BOTH SET(S).
     1 ORBITALS ARE OCCUPIED (    0 CORE ORBITALS).
     1=A        2=A        3=A        4=A   
 ...... END OF INITIAL ORBITAL SELECTION ......
 STEP CPU TIME =     0.00 TOTAL CPU TIME =          0.0 (      0.0 MIN)
 TOTAL WALL CLOCK TIME=          0.1 SECONDS, CPU UTILIZATION IS    35.91%

                    ----------------------
                    AO INTEGRAL TECHNOLOGY
                    ----------------------
     S,P,L SHELL ROTATED AXIS INTEGRALS, REPROGRAMMED BY
        KAZUYA ISHIMURA (IMS) AND JOSE SIERRA (SYNSTAR).
     S,P,D,L SHELL ROTATED AXIS INTEGRALS PROGRAMMED BY
        KAZUYA ISHIMURA (INSTITUTE FOR MOLECULAR SCIENCE).
     S,P,D,F,G SHELL TO TOTAL QUARTET ANGULAR MOMENTUM SUM 5,
        ERIC PROGRAM BY GRAHAM FLETCHER (ELORET AND NASA ADVANCED
        SUPERCOMPUTING DIVISION, AMES RESEARCH CENTER).
     S,P,D,F,G,L SHELL GENERAL RYS QUADRATURE PROGRAMMED BY
        MICHEL DUPUIS (PACIFIC NORTHWEST NATIONAL LABORATORY).

          --------------------
          2 ELECTRON INTEGRALS
          --------------------

 THE -PK- OPTION IS OFF, THE INTEGRALS ARE NOT IN SUPERMATRIX FORM.
 STORING   15000 INTEGRALS/RECORD ON DISK, USING 12 BYTES/INTEGRAL.
 TWO ELECTRON INTEGRAL EVALUATION REQUIRES   89366 WORDS OF MEMORY.
 II,JST,KST,LST =  1  1  1  1 NREC =         1 INTLOC =    1
 II,JST,KST,LST =  2  1  1  1 NREC =         1 INTLOC =    2
 II,JST,KST,LST =  3  1  1  1 NREC =         1 INTLOC =    7
 II,JST,KST,LST =  4  1  1  1 NREC =         1 INTLOC =   22
 TOTAL NUMBER OF NONZERO TWO-ELECTRON INTEGRALS =                  55
          1 INTEGRAL RECORDS WERE STORED ON DISK FILE  8.
  ...... END OF TWO-ELECTRON INTEGRALS .....
 STEP CPU TIME =     0.01 TOTAL CPU TIME =          0.0 (      0.0 MIN)
 TOTAL WALL CLOCK TIME=          0.1 SECONDS, CPU UTILIZATION IS    48.03%

          -----------------
          MCSCF CALCULATION
          -----------------

 ----- NUCLEAR ENERGY ----- =         0.7151043909

     --------------------------------------------------
          AMES LABORATORY DETERMINANTAL FULL CI
     PROGRAM WRITTEN BY JOE IVANIC AND KLAUS RUEDENBERG
     --------------------------------------------------

 THE POINT GROUP                  =   C1      
 THE STATE SYMMETRY               =   A       
 NUMBER OF CORE ORBITALS          =    0
 NUMBER OF ACTIVE ORBITALS        =    2
 NUMBER OF ALPHA ELECTRONS        =    1 (   1 ACTIVE)
 NUMBER OF BETA ELECTRONS         =    1 (   1 ACTIVE)
 NUMBER OF OCCUPIED ORBITALS      =    2
 NUMBER OF CI STATES REQUESTED    =    1
 NUMBER OF CI STARTING VECTORS    =    1
 MAX. NO. OF CI EXPANSION VECTORS =   10
 SIZE OF INITIAL CI GUESS MATRIX  =  300
 MAX. NO. OF CI ITERS/STATE       =  100
 CI DIAGONALIZATION CRITERION     = 1.00E-05
 PURE SPIN STATE AVERAGED 1E- AND 2E- DENSITY MATRIX OPTION=.T.
 STATE=   1 DM2 WEIGHT=   1.00000

 CORRELATION ENERGY ANALYSIS      =    F

 SYMMETRIES FOR THE   0 CORE,   2 ACTIVE ARE

   ACTIVE= A     A   
 OPENING FILE DAFL30 WITH      81 LOGICAL RECORDS OF     361 WORDS
 WITH A MAXIMUM OF          81 PHYSICAL RECORDS OF    2048 WORDS

          ------------------------------
          CASSCF INTEGRAL TRANSFORMATION
          ------------------------------
 AO INTEGRALS WILL BE READ IN FROM DISK...

 NUMBER OF CORE MOLECULAR ORBITALS     =     0
 NUMBER OF OCCUPIED MOLECULAR ORBITALS =     2
 TOTAL NUMBER OF MOLECULAR ORBITALS    =     4
 TOTAL NUMBER OF ATOMIC ORBITALS       =     4

 ----- CHOOSING THREE STEPS TRANSFORMATION -----
 NUMBER OF WORDS USED      =      60161
 NUMBER OF WORDS AVAILABLE =     999999
 NUMBER OF PASSES          =          1

 ----- NUCLEAR REPULSION ENERGY =      0.71510439
 ----- FROZEN CORE ENERGY       =      0.00000000

 ... SYMMETRY ...           CPU =    0.00
 ... (PQ|RS) -> (PQ|KL) ... CPU =    0.00
 ... (PQ|KL) -> (IJ|KL) ... CPU =    0.00

 NUMBER OF (PQ|KL) INTEGRALS WRITTEN         28
 NUMBER OF (IJ|KL) INTEGRALS WRITTEN          4
 ..... END OF CAS INTEGRAL TRANSFORMATION .....
 STEP CPU TIME =     0.00 TOTAL CPU TIME =          0.0 (      0.0 MIN)
 TOTAL WALL CLOCK TIME=          0.2 SECONDS, CPU UTILIZATION IS    18.89%

     --------------------------------------------------
          AMES LABORATORY DETERMINANTAL FULL CI
     PROGRAM WRITTEN BY JOE IVANIC AND KLAUS RUEDENBERG
     --------------------------------------------------

 THE NUMBER OF DETERMINANTS HAVING SPACE SYMMETRY A  
 IN POINT GROUP C1   WITH SZ=  0.0 IS              4
 WHICH INCLUDES              3 CSFS WITH S=  0.0
 WHICH INCLUDES              1 CSFS WITH S=  1.0
 THE DETERMINANT FULL CI REQUIRES          169551 WORDS
 SMALL CI MATRIX, JUST USING INCORE DIAGONALIZATION...

 CI EIGENVECTORS WILL BE LABELED IN GROUP=C1      
 PRINTING ALL NON-ZERO CI COEFFICIENTS

 STATE   1  ENERGY=        -1.1323914491  S=  0.00  SZ=  0.00  SPACE SYM=A   

 ALP| BET| CI COEFFICIENT
----|----|---------------
 10 | 10 |                                                                                                       0.9975270965
 01 | 01 |                                                                                                      -0.0702829403
 ..... DONE WITH DETERMINANT CI COMPUTATION .....
 STEP CPU TIME =     0.00 TOTAL CPU TIME =          0.0 (      0.0 MIN)
 TOTAL WALL CLOCK TIME=          0.2 SECONDS, CPU UTILIZATION IS    19.32%

     --------------------------------------------------
      ONE AND TWO PARTICLE DENSITY MATRIX COMPUTATION
     PROGRAM WRITTEN BY JOE IVANIC AND KLAUS RUEDENBERG
     --------------------------------------------------

      30090 WORDS WILL BE USED TO FORM THE DENSITIES
 THE DENSITIES ARE STATE AVERAGED OVER   1 ROOT(S)
 STATE=   1   ENERGY=       -1.1323914491   WEIGHT= 1.00000   S=  0.00
 SIEVING THE A    SYMMETRY NONZERO DENSITY ELEMENTS IN GROUP C1      
          3 NONZERO DM2 ELEMENTS WRITTEN IN       1 RECORDS TO FILE 15
 ..... DONE WITH 1 AND 2 PARTICLE DENSITY MATRIX .....
 STEP CPU TIME =     0.00 TOTAL CPU TIME =          0.0 (      0.0 MIN)
 TOTAL WALL CLOCK TIME=          0.2 SECONDS, CPU UTILIZATION IS    19.65%

          --------------------------------------
          APPROXIMATE SECOND-ORDER MCSCF PROGRAM
          --------------------------------------
          PROGRAM WRITTEN BY G.CHABAN, A.MARQUEZ, AND M.DUPUIS

  NUMBER OF WORDS NEEDED     =      30206
  NUMBER AVAILABLE           =     999999

 ----- GAMMA(IJKL)*(PQ|KL) PRODUCTS ----- CPU TIME =      0.000
 ----- ORBITAL SYMMETRY             ----- CPU TIME =      0.000
 ----- FOCK OPERATORS CONSTRUCTION  ----- CPU TIME =      0.000
     MICIT =   1 ASYMM =    0.012634 ROTMAX =    0.042358
 ----- EFFECTIVE FOCK + ROTATE ORBS ----- CPU TIME =      0.001
     MICIT =   2 ASYMM =    0.011793 ROTMAX =    0.026876
     MICIT =   3 ASYMM =    0.011248 ROTMAX =    0.066568
     MICIT =   4 ASYMM =    0.009868 ROTMAX =    0.056780
     MICIT =   5 ASYMM =    0.008651 ROTMAX =    0.036403
 ..... DONE WITH CASSCF ORBITAL UPDATE .....
 STEP CPU TIME =     0.00 TOTAL CPU TIME =          0.0 (      0.0 MIN)
 TOTAL WALL CLOCK TIME=          0.2 SECONDS, CPU UTILIZATION IS    20.76%

 ITER     TOTAL ENERGY      DEL(E)  LAGRANGIAN ASYMMETRY   SQCDF  MICIT   DAMP
   1       -1.132391449 -0.132391449  0.012634    3    2 4.236E-02  5   0.0000
 SOSCF IS SCALING ROTATION ANGLE MATRIX, SQCDF=    0.134698
       ----------START APPROXIMATE SECOND ORDER MCSCF----------
   2       -1.139289670 -0.006898221  0.015601    3    2 5.112E-02  1   0.0000
 SOSCF IS SCALING ROTATION ANGLE MATRIX, SQCDF=    0.111488
   3       -1.144856619 -0.005566950  0.010216    4    1 4.270E-02  1   0.0000
   4       -1.146206094 -0.001349474  0.001412    4    1 5.593E-04  1   0.0000
   5       -1.146233683 -0.000027589  0.000545    4    1 1.816E-05  1   0.0000
   6       -1.146234415 -0.000000732  0.000049    4    1 2.904E-08  1   0.0000
   7       -1.146234417 -0.000000002  0.000008    4    1 1.237E-10  1   0.0000

          --------------------
          LAGRANGIAN CONVERGED
          --------------------

 FINAL MCSCF ENERGY IS       -1.1462344172 AFTER   7 ITERATIONS

 -MCCI- BASED ON OPTIMIZED ORBITALS
 ----------------------------------

 PLEASE NOTE: IF THE ACTIVE ORBITALS ARE CANONICALIZED BELOW,
 THE FOLLOWING CI EXPANSION COEFFICIENTS AND THE DENSITY DO NOT
 CORRESPOND TO THE PRINTED ORBITALS.  THE PRINTED EXPANSIONS MATCH
 THE ORBITALS USED DURING THE LAST ITERATION.  IF YOU WISH TO SEE
 CI EXPANSIONS BASED ON THE CANONICAL (OR NATURAL) ORBITALS, YOU
 MUST RUN A CI CALCULATION WITH THAT ORBITAL CHOICE READ IN $VEC.

 CI EIGENVECTORS WILL BE LABELED IN GROUP=C1      
 PRINTING ALL NON-ZERO CI COEFFICIENTS

 STATE   1  ENERGY=        -1.1462344172  S=  0.00  SZ=  0.00  SPACE SYM=A   

 ALP| BET| CI COEFFICIENT
----|----|---------------
 10 | 10 |                                                                                                       0.9939518789
 01 | 01 |                                                                                                      -0.1098164943

 DENSITY MATRIX OVER ACTIVE MO-S

             1           2

    1    1.9758807
    2    0.0000000   0.0241193

 FORMING THE "STANDARD FOCK OPERATOR" USING INTEGRALS FROM DISK...
     0 FILLED,    2 ACTIVE, AND    2 VIRTUAL ORBITALS  WILL BE CANONICALIZED

          ----------------------
          MCSCF NATURAL ORBITALS
          ----------------------

                      1          2
                    1.9759     0.0241
                     A          A   
    1  H  1  S    0.332761   0.766442
    2  H  1  S    0.266572   0.575652
    3  H  2  S    0.332761  -0.766442
    4  H  2  S    0.266572  -0.575652

 LZ VALUE ANALYSIS FOR THE MOS
 ----------------------------------------
 MO     1 (    1) HAS LZ(WEIGHT)= 0.00(100.0%) 
 MO     2 (    2) HAS LZ(WEIGHT)= 0.00(100.0%) 
 MO     3 (    3) HAS LZ(WEIGHT)= 0.00(100.0%) 
 MO     4 (    4) HAS LZ(WEIGHT)= 0.00(100.0%) 

          ------------------------
          MCSCF OPTIMIZED ORBITALS
          ------------------------

                      1          2          3          4
                   -0.5874     0.6499     0.7770     0.9937
                     A          A          A          A   
    1  H  1  S    0.332761   0.766442   0.763803  -0.829408
    2  H  1  S    0.266572   0.575652  -0.688302   2.104865
    3  H  2  S    0.332761  -0.766442   0.763803   0.829408
    4  H  2  S    0.266572  -0.575652  -0.688302  -2.104865
 .....DONE WITH MCSCF ITERATIONS.....
 STEP CPU TIME =     0.02 TOTAL CPU TIME =          0.1 (      0.0 MIN)
 TOTAL WALL CLOCK TIME=          0.3 SECONDS, CPU UTILIZATION IS    20.76%

     ----------------------------------------------------------------
     PROPERTY VALUES FOR THE MCSCF SELF-CONSISTENT FIELD WAVEFUNCTION
     ----------------------------------------------------------------

          -----------------
          ENERGY COMPONENTS
          -----------------

         WAVEFUNCTION NORMALIZATION =       1.0000000000

                ONE ELECTRON ENERGY =      -2.4784414870
                TWO ELECTRON ENERGY =       0.6171026790
           NUCLEAR REPULSION ENERGY =       0.7151043909
                                      ------------------
                       TOTAL ENERGY =      -1.1462344172

 ELECTRON-ELECTRON POTENTIAL ENERGY =       0.6171026790
  NUCLEUS-ELECTRON POTENTIAL ENERGY =      -3.6473997234
   NUCLEUS-NUCLEUS POTENTIAL ENERGY =       0.7151043909
                                      ------------------
             TOTAL POTENTIAL ENERGY =      -2.3151926536
               TOTAL KINETIC ENERGY =       1.1689582364
                 VIRIAL RATIO (V/T) =       1.9805606236

          ---------------------------------------
          MULLIKEN AND LOWDIN POPULATION ANALYSES
          ---------------------------------------

     ATOMIC MULLIKEN POPULATION IN EACH MOLECULAR ORBITAL

                      1          2

                  1.975881   0.024119

    1             0.987940   0.012060
    2             0.987940   0.012060
 WARNING! MCSCF POPULATIONS SHOWN ABOVE ARE FOR THE NATURAL ORBITALS.
 IGNORE THE ABOVE DATA FOR MCSCF FUNCTIONS WHICH ARE NOT OF -FORS- TYPE.
 THE FOLLOWING POPULATIONS ARE CORRECT FOR ANY MCSCF WAVEFUNCTION.

               ----- POPULATIONS IN EACH AO -----
                             MULLIKEN      LOWDIN
              1  H  1  S      0.53231     0.49922
              2  H  1  S      0.46769     0.50078
              3  H  2  S      0.53231     0.49922
              4  H  2  S      0.46769     0.50078

          ----- MULLIKEN ATOMIC OVERLAP POPULATIONS -----
          (OFF-DIAGONAL ELEMENTS NEED TO BE MULTIPLIED BY 2)

             1           2

    1    0.6261264
    2    0.3738736   0.6261264

          TOTAL MULLIKEN AND LOWDIN ATOMIC POPULATIONS
       ATOM         MULL.POP.    CHARGE          LOW.POP.     CHARGE
    1 H             1.000000   -0.000000         1.000000   -0.000000
    2 H             1.000000    0.000000         1.000000    0.000000

          ---------------------
          ELECTROSTATIC MOMENTS
          ---------------------

 POINT   1           X           Y           Z (BOHR)    CHARGE
                 0.000000    0.000000    0.699199        0.00 (A.U.)
         DX          DY          DZ         /D/  (DEBYE)
     0.000000    0.000000    0.000000    0.000000
 ...... END OF PROPERTY EVALUATION ......
 STEP CPU TIME =     0.01 TOTAL CPU TIME =          0.1 (      0.0 MIN)
 TOTAL WALL CLOCK TIME=          0.3 SECONDS, CPU UTILIZATION IS    22.78%
               580000  WORDS OF DYNAMIC MEMORY USED
 EXECUTION OF GAMESS TERMINATED NORMALLY 11:40:50 24-APR-2024    
 DDI: 263640 bytes (0.3 MB / 0 MWords) used by master data server.

 ----------------------------------------
 CPU timing information for all processes
 ========================================
 0: 0.40 + 0.36 = 0.76
 ----------------------------------------
 ddikick.x: exited gracefully.
----- accounting info -----
Files used on the master node muhka were:
-rw-r----- 1 humbel users     849 Apr 24 11:40 /scratch/humbel.256919/H2_CAS.F05
-rw-r--r-- 1 humbel users  180016 Apr 24 11:40 /scratch/humbel.256919/H2_CAS.F08
-rw-r--r-- 1 humbel users  180104 Apr 24 11:40 /scratch/humbel.256919/H2_CAS.F09
-rw-r--r-- 1 humbel users 1897760 Apr 24 11:40 /scratch/humbel.256919/H2_CAS.F10
-rw-r--r-- 1 humbel users      64 Apr 24 11:40 /scratch/humbel.256919/H2_CAS.F12
-rw-r--r-- 1 humbel users     384 Apr 24 11:40 /scratch/humbel.256919/H2_CAS.F13
-rw-r--r-- 1 humbel users  180048 Apr 24 11:40 /scratch/humbel.256919/H2_CAS.F15
-rw-r--r-- 1 humbel users     600 Apr 24 11:40 /scratch/humbel.256919/H2_CAS.F23
Wed Apr 24 11:40:53 AM CEST 2024
0.0u 0.0s 0:03.49 4.0% 0+0k 8+224io 0pf+0w
