----- GAMESS execution script 'rungms' -----
This job is running on host brusel
under operating system Linux at Sun May 12 06:04:20 PM CEST 2024
Available scratch disk space (Kbyte units) at beginning of the job is
Filesystem                    1K-blocks      Used Available Use% Mounted on
/dev/mapper/vg--ctom-scratch 1049894020 215688000 834206020  21% /scratch
GAMESS temporary binary files will be written to /scratch/humbel.257452
GAMESS supplementary output files will be written to /home/humbel/di-barrois/di-antracene/di-proj
Copying input file ./proj_modif.inp to your run's scratch directory...

 Distributed Data Interface kickoff program.
 Initiating 1 compute processes on 1 nodes to run the following command:
 /home/humbel/fuming/softwares/gamess/2020-R2/gamess.xmvb.x proj_modif 

          *******************************************************
          *                                                     *
          *          GAMESS VERSION = 30 SEP 2020 (R2)          *
          *                                                     *
          *              doi.org/10.1063/5.0005188              *
          *                                                     *
          **************** 64 BIT LINUX VERSION *****************

  GAMESS HAS BEEN MADE POSSIBLE WITH IMPORTANT CONTRIBUTIONS FROM
  THE FOLLOWING INDIVIDUALS (IN ALPHABETICAL ORDER):

     IVANA ADAMOVIC, CHRISTINE AIKENS, TOMOKO AKAMA,
     YURI ALEXEEV, YURIKO AOKI, POOJA ARORA, TOSHIO ASADA,
     ANDREY ASADCHEV, KIM K. BALDRIDGE, PRADIPTA BANDYOPADHYAY,
     MARIA BARYSZ, ROB BELL, JONATHAN BENTZ, COLLEEN BERTONI,
     JERRY A. BOATZ, BRETT BODE, KURT BRORSEN, KURT R. BRORSEN,
     LAIMUTIS BYTAUTAS, CALEB CARLIN, LAURA CARRINGTON,
     GALINA CHABAN, BENOIT CHAMPAGNE, WEI CHEN, MAHITO CHIBA,
     DAN CHIPMAN, CHEOL HO CHOI, TANNER CULPITT,
     DIPAYAN DATTA, PAUL DAY, ALBERT DEFUSCO,
     NUWAN DESILVA, J. EMILIANO DEUSTUA,
     TIM DUDLEY, MICHEL DUPUIS, STEVEN T. ELBERT,
     DMITRI FEDOROV, ALEX FINDLATER, GRAHAM FLETCHER,
     MARK FREITAG, CHRISTIAN FRIEDL, DAVID GARMER,
     IGOR S. GERASIMOV, KURT GLAESEMANN, MARK S. GORDON,
     JEFFREY GOUR, FENG LONG GU, EMILIE B. GUIDEZ,
     ANASTASIA GUNINA, SHARON HAMMES-SCHIFFER, MASATAKE HARUTA,
     KIMIHIKO HIRAO, YASUHIRO IKABATA, TZVETELIN IORDANOV,
     STEPHAN IRLE, KAZUYA ISHIMURA, JOE IVANIC, FRANK JENSEN,
     JAN H. JENSEN, VISVALDAS KAIRYS, MUNEAKI KAMIYA,
     MICHIO KATOUDA, NAOAKI KAWAKAMI, DAN KEMP, BERNARD KIRTMAN,
     KAZUO KITAURA, MARIUSZ KLOBUKOWSKI, MASATO KOBAYASHI,
     PRAKASHAN KORAMBATH, JACEK KORCHOWIEC, SHIRO KOSEKI,
     KAROL KOWALSKI, JIMMY KROMANN, STANISLAW KUCHARSKI,
     HENRY KURTZ, SAROM SOK LEANG, HUI LI, SHUHUA LI, WEI LI,
     JESSE LUTZ, ALEKSANDR O. LYKHIN, MARCIN MAKOWSKI,
     JOANI MATO, NIKITA MATSUNAGA, BENEDETTA MENNUCCI,
     GRANT MERRILL, NORIYUKI MINEZAWA, VLADIMIR MIRONOV,
     EISAKU MIYOSHI, JOHN A. MONTGOMERY JR., HIROTOSHI MORI,
     JONATHAN MULLIN, MONIKA MUSIAL, SHIGERU NAGASE,
     TAKESHI NAGATA, HIROMI NAKAI, TAKAHITO NAKAJIMA,
     YUYA NAKAJIMA, HARUYUKI NAKANO, HIROYA NAKATA, SEAN NEDD,
     HEATHER NETZLOFF, KIET A. NGUYEN, YOSHIO NISHIMOTO,
     BOSILJKA NJEGIC, RYAN OLSON, MIKE PAK, ROBERTO PEVERATI,
     BUU PHAM, PIOTR PIECUCH, ANNA POMOGAEVA, DAVID POOLE,
     SPENCER PRUITT, OLIVIER QUINET, LUKE ROSKOP,
     KLAUS RUEDENBERG, ANDREW SAND, TOSAPORN SATTASATHUCHANA,
     NOZOMI SAWADA, MICHAEL W. SCHMIDT, PATRICK E. SCHNEIDER,
     JUNJI SEINO, PRACHI SHARMA, JUN SHEN, JIM SHOEMAKER,
     YINAN SHU, DEJUN SI, JONATHAN SKONE, LYUDMILA SLIPCHENKO,
     TONY SMITH, JIE SONG, MARK SPACKMAN, CASPER STEINMANN,
     WALT STEVENS, PEIFENG SU, SHUJUN SU, CHET SWALINA,
     TETSUYA TAKETSUGU, ZHEN TAO, NANDUN THELLAMUREGE
     SEIKEN TOKURA, JACOPO TOMASI, TSUGUKI TOUMA, TAKAO TSUNEDA,
     HIROAKI UMEDA, JORGE LUIS GALVEZ VALLEJO, YALI WANG,
     SIMON WEBB, AARON WEST, THERESA L. WINDUS, MARTA WLOCH,
     PENG XU, KIYOSHI YAGI, SUSUMU YANAGISAWA, YANG YANG,
     SOOHAENG YOO, TAKESHI YOSHIKAWA, FEDERICO ZAHARIEV,
     TOBY ZENG

  WHO ARE SUPPORTED BY THEIR INSTITUTION/UNIVERSITY/COMPANY/GROUP
  (IN ALPHABETICAL ORDER):

     EP ANALYTICS, FACULTES UNIVERSITAIRES NOTRE-DAME DE LA PAIX,
     INSTITUTE FOR MOLECULAR SCIENCE, IOWA STATE UNIVERSITY,
     JACKSON STATE UNIVERSITY, JOHANNES KEPLER UNIVERSITY LINZ,
     KYUSHU UNIVERSITY, MICHIGAN STATE UNIVERSITY,
     MIE UNIVERSITY, MOSCOW STATE UNIVERSITY,
     N. COPERNICUS UNIVERSITY, NAGOYA UNIVERSITY,
     NANJING UNIVERSITY, NAT. INST. OF ADVANCED INDUSTRIAL
     SCIENCE AND TECHNOLOGY, NATIONAL INST. OF STANDARDS AND
     TECHNOLOGY, NESMEYANOV INSTITUTE OF ORGANOELEMENT COMPOUNDS
     OF RUSSIAN ACADEMY OF SCIENCES, OSAKA PREFECTURE UNIVERSITY,
     PENNSYLVANIA STATE UNIVERSITY, TOKYO INSTITUTE OF TECHNOLOGY,
     UNIVERSITY OF AARHUS, UNIVERSITY OF ALBERTA,
     UNIVERSITY OF CALIFORNIA AT SANTA BARBARA,
     UNIVERSITY OF COPENHAGEN, UNIVERSITY OF IOWA,
     UNIVERSITY OF MEMPHIS, UNIVERSITY OF MINNESOTA,
     UNIVERSITY OF NEBRASKA, UNIVERSITY OF NEW ENGLAND,
     UNIVERSITY OF NOTRE DAME, UNIVERSITY OF PISA,
     UNIVERSITY OF SILESIA, UNIVERSITY OF TOKYO,
     UNIVERSITY OF ZURICH, WASEDA UNIVERSITY, YALE UNIVERSITY

  GAMESS SOFTWARE MANAGEMENT TEAM FOR THIS RELEASE:
     MARK S. GORDON (TEAM LEAD),
     BRETT BODE (SENIOR ADVISOR),
     GIUSEPPE BARCA,
     COLLEEN BERTONI,
     KRISTOPHER KEIPERT (ADVISOR),
     SAROM S. LEANG (DEVELOPMENT LEAD),
     BUU PHAM,
     JORGE LUIS GALVEZ VALLEJO (WEBSITE ADMINISTRATOR),
     PENG XU

 EXECUTION OF GAMESS BEGUN 18:04:20 12-MAY-2024    

            ECHO OF THE FIRST FEW INPUT CARDS -
 INPUT CARD>!   File created by MacMolPlt 7.7.2                                             
 INPUT CARD>! $CONTRL SCFTYP=RHF RUNTYP=ENERGY MAXIT=200 MULT=1 $END                        
 INPUT CARD>! $CONTRL SCFTYP=MCSCF RUNTYP=ENERGY MAXIT=200 MULT=1 $END                      
 INPUT CARD> $CONTRL   SCFTYP=MCSCF RUNTYP=ENERGY  $END                                     
 INPUT CARD> $CONTRL   MAXIT=90  MULT=1  $END                                               
 INPUT CARD> $CONTRL   VBTYP=NONE  $END                                                     
 INPUT CARD>! $CONTRL  VBTYP=XMVB  $END                                                     
 INPUT CARD> $CONTRL  COORD=UNIQUE                 $END                                     
 INPUT CARD> $MCSCF CISTEP=GUGA $END                                                        
 INPUT CARD> $DRT    GROUP=C1  FORS=.TRUE. NMCC=46 NDOC=1 NVAL=1 $END                       
 INPUT CARD> $GUGDIA NSTATE=2 $END                                                          
 INPUT CARD> $GUGDM2 WSTATE(1)=1.0,0.0 $END                                                 
 INPUT CARD> $SYSTEM TIMLIM=525600 MEMORY=1000000 $END                                      
 INPUT CARD> $BASIS GBASIS=N31 NGAUSS=6 $END                                                
 INPUT CARD> $GUESS GUESS=MOREAD                                                            
 INPUT CARD> NORB=48                                                                        
 INPUT CARD> $END                                                                           
 INPUT CARD> $MOFRZ FRZ=.T.                                                                 
 INPUT CARD> IFRZ(1)=1,2,3,4,5,6,7,8,9,10,11,12,13,14,15,16,17,18,19,20,21,22,23            
 INPUT CARD> IFRZ(24)=24,25,26,27,28,29,30,31,32,33,34,35,36,37,38,39,40                    
 INPUT CARD> $END                                                                           
 INPUT CARD>! $DET                                                                          
 INPUT CARD>! PRTTOL=0.  NCORE=46  NACT=2 NELS=2 ISTSYM=1                                   
 INPUT CARD>!! PRTTOL=0.  NCORE=7  NACT=2 NELS=2 ISTSYM=6                                   
 INPUT CARD>!!                                 D2h Ag B1g B2g B3g Au B1u B2u B3u            
 INPUT CARD>!                              ISTSYM  1  2   3   4   5   6   7   8             
 INPUT CARD>! NSTATE=2                                                                      
 INPUT CARD>! WSTATE(1)=1.0,0.0                                                             
 INPUT CARD>! PURES=.true. SZ=0                                                             
 INPUT CARD>! $END                                                                          
 INPUT CARD> $SCF DIRSCF=.TRUE. $END                                                        
 INPUT CARD> $DATA                                                                          
 INPUT CARD>anthracene opt C2H gaussian                                                     
 INPUT CARD>C1                                                                              
 INPUT CARD>C  6.0     0.00000    -2.47682     -1.40470                                     
 INPUT CARD>C  6.0    -0.00000    -0.00000      1.40119                                     
 INPUT CARD>C  6.0     0.00000    -2.47682      1.40470                                     
 INPUT CARD>C  6.0     0.00000     0.00000     -1.40119                                     
 INPUT CARD>C  6.0     0.00000    -3.65503     -0.71227                                     
 INPUT CARD>C  6.0    -0.00000     1.22202      0.72155                                     
 INPUT CARD>C  6.0     0.00000    -3.65503      0.71227                                     
 INPUT CARD>C  6.0    -0.00000     1.22202     -0.72155                                     
 INPUT CARD>C  6.0    -0.00000    -1.22202      0.72155                                     
 INPUT CARD>C  6.0     0.00000    -1.22202     -0.72155                                     
 INPUT CARD>C  6.0    -0.00000     3.65503      0.71227                                     
 INPUT CARD>C  6.0     0.00000     3.65503     -0.71227                                     
 INPUT CARD>C  6.0    -0.00000     2.47682      1.40470                                     
 INPUT CARD>C  6.0     0.00000     2.47682     -1.40470                                     
 INPUT CARD>H  1.0     0.00000     2.47711     -2.49085                                     
 INPUT CARD>H  1.0     0.00000    -2.47711      2.49085                                     
    1000000 WORDS OF MEMORY AVAILABLE

     BASIS OPTIONS
     -------------
     GBASIS=N31          IGAUSS=       6      POLAR=NONE    
     NDFUNC=       0     NFFUNC=       0     DIFFSP=       F
     NPFUNC=       0      DIFFS=       F     BASNAM=        


     RUN TITLE
     ---------
 anthracene opt C2H gaussian                                                     

 THE POINT GROUP OF THE MOLECULE IS C1      
 THE ORDER OF THE PRINCIPAL AXIS IS     0

 ATOM      ATOMIC                      COORDINATES (BOHR)
           CHARGE         X                   Y                   Z
 C           6.0     0.0000000000       -4.6805111209       -2.6544980950
 C           6.0    -0.0000000000       -0.0000000000        2.6478651567
 C           6.0     0.0000000000       -4.6805111209        2.6544980950
 C           6.0     0.0000000000        0.0000000000       -2.6478651567
 C           6.0     0.0000000000       -6.9070051769       -1.3459951293
 C           6.0    -0.0000000000        2.3092829515        1.3635317864
 C           6.0     0.0000000000       -6.9070051769        1.3459951293
 C           6.0    -0.0000000000        2.3092829515       -1.3635317864
 C           6.0    -0.0000000000       -2.3092829515        1.3635317864
 C           6.0     0.0000000000       -2.3092829515       -1.3635317864
 C           6.0    -0.0000000000        6.9070051769        1.3459951293
 C           6.0     0.0000000000        6.9070051769       -1.3459951293
 C           6.0    -0.0000000000        4.6805111209        2.6544980950
 C           6.0     0.0000000000        4.6805111209       -2.6544980950
 H           1.0     0.0000000000        4.6810591414       -4.7070239765
 H           1.0     0.0000000000       -4.6810591414        4.7070239765
 H           1.0     0.0000000000        0.0000000000       -4.7019595109
 H           1.0    -0.0000000000       -0.0000000000        4.7019595109
 H           1.0    -0.0000000000        4.6810591414        4.7070239765
 H           1.0     0.0000000000       -4.6810591414       -4.7070239765
 H           1.0    -0.0000000000        8.6937033038        2.3528789301
 H           1.0     0.0000000000       -8.6937033038       -2.3528789301
 H           1.0     0.0000000000        8.6937033038       -2.3528789301
 H           1.0     0.0000000000       -8.6937033038        2.3528789301

          INTERNUCLEAR DISTANCES (ANGS.)
          ------------------------------

                1 C          2 C          3 C          4 C          5 C     

   1 C       0.0000000    3.7426803    2.8094000 *  2.4768225 *  1.3666156 *
   2 C       3.7426803    0.0000000    2.4768225 *  2.8023800 *  4.2220798  
   3 C       2.8094000 *  2.4768225 *  0.0000000    3.7426803    2.4227548 *
   4 C       2.4768225 *  2.8023800 *  3.7426803    0.0000000    3.7193891  
   5 C       1.3666156 *  4.2220798    2.4227548 *  3.7193891    0.0000000  
   6 C       4.2664220    1.3983002 *  3.7613975    2.4493587 *  5.0834493  
   7 C       2.4227548 *  3.7193891    1.3666156 *  4.2220798    1.4245400 *
   8 C       3.7613975    2.4493587 *  4.2664220    1.3983002 *  4.8770588  
   9 C       2.4688990 *  1.3983002 *  1.4287116 *  2.4493587 *  2.8240711 *
  10 C       1.4287116 *  2.4493587 *  2.4688990 *  1.3983002 *  2.4330277 *
  11 C       6.4869983    3.7193891    6.1708220    4.2220798    7.4475695  
  12 C       6.1708220    4.2220798    6.4869983    3.7193891    7.3100600  
  13 C       5.6948466    2.4768225 *  4.9536400    3.7426803    6.4869983  
  14 C       4.9536400    3.7426803    5.6948466    2.4768225 *  6.1708220  
  15 H       5.0716017    4.6134639    6.3021212    2.7061842 *  6.3848640  
  16 H       3.8955500    2.7061842 *  1.0861500 *  4.6134639    3.4128395  
  17 H       2.7034320 *  3.8893600    4.6140085    1.0869800 *  4.0636271  
  18 H       4.6140085    1.0869800 *  2.7034320 *  3.8893600    4.8581952  
  19 H       6.3021212    2.7061842 *  5.0716017    4.6134639    6.9183176  
  20 H       1.0861500 *  4.6134639    3.8955500    2.7061842 *  2.1332703 *
  21 H       7.5571150    4.6031576    7.0791296    5.3073054    8.4844092  
  22 H       2.1296795 *  5.3073054    3.3957983    4.6031576    1.0852786 *
  23 H       7.0791296    5.3073054    7.5571150    4.6031576    8.2727165  
  24 H       3.3957983    4.6031576    2.1296795 *  5.3073054    2.1737504 *

                6 C          7 C          8 C          9 C         10 C     

   1 C       4.2664220    2.4227548 *  3.7613975    2.4688990 *  1.4287116 *
   2 C       1.3983002 *  3.7193891    2.4493587 *  1.3983002 *  2.4493587 *
   3 C       3.7613975    1.3666156 *  4.2664220    1.4287116 *  2.4688990 *
   4 C       2.4493587 *  4.2220798    1.3983002 *  2.4493587 *  1.3983002 *
   5 C       5.0834493    1.4245400 *  4.8770588    2.8240711 *  2.4330277 *
   6 C       0.0000000    4.8770588    1.4431000 *  2.4440400 *  2.8382863 *
   7 C       4.8770588    0.0000000    5.0834493    2.4330277 *  2.8240711 *
   8 C       1.4431000 *  5.0834493    0.0000000    2.8382863 *  2.4440400 *
   9 C       2.4440400 *  2.4330277 *  2.8382863 *  0.0000000    1.4431000 *
  10 C       2.8382863 *  2.8240711 *  2.4440400 *  1.4431000 *  0.0000000  
  11 C       2.4330277 *  7.3100600    2.8240711 *  4.8770588    5.0834493  
  12 C       2.8240711 *  7.4475695    2.4330277 *  5.0834493    4.8770588  
  13 C       1.4287116 *  6.1708220    2.4688990 *  3.7613975    4.2664220  
  14 C       2.4688990 *  6.4869983    1.4287116 *  4.2664220    3.7613975  
  15 H       3.4488788    6.9183176    2.1692564 *  4.8992935    4.1004860  
  16 H       4.1004860    2.1332703 *  4.8992935    2.1692564 *  3.4488788  
  17 H       3.4344775    4.8581952    2.1480873 *  3.4344775    2.1480873 *
  18 H       2.1480873 *  4.0636271    3.4344775    2.1480873 *  3.4344775  
  19 H       2.1692564 *  6.3848640    3.4488788    4.1004860    4.8992935  
  20 H       4.8992935    3.4128395    4.1004860    3.4488788    2.1692564 *
  21 H       3.4188139    8.2727165    3.9092029    5.8460200    6.1456919  
  22 H       6.1456919    2.1737504 *  5.8460200    3.9092029    3.4188139  
  23 H       3.9092029    8.4844092    3.4188139    6.1456919    5.8460200  
  24 H       5.8460200    1.0852786 *  6.1456919    3.4188139    3.9092029  

               11 C         12 C         13 C         14 C         15 H     

   1 C       6.4869983    6.1708220    5.6948466    4.9536400    5.0716017  
   2 C       3.7193891    4.2220798    2.4768225 *  3.7426803    4.6134639  
   3 C       6.1708220    6.4869983    4.9536400    5.6948466    6.3021212  
   4 C       4.2220798    3.7193891    3.7426803    2.4768225 *  2.7061842 *
   5 C       7.4475695    7.3100600    6.4869983    6.1708220    6.3848640  
   6 C       2.4330277 *  2.8240711 *  1.4287116 *  2.4688990 *  3.4488788  
   7 C       7.3100600    7.4475695    6.1708220    6.4869983    6.9183176  
   8 C       2.8240711 *  2.4330277 *  2.4688990 *  1.4287116 *  2.1692564 *
   9 C       4.8770588    5.0834493    3.7613975    4.2664220    4.8992935  
  10 C       5.0834493    4.8770588    4.2664220    3.7613975    4.1004860  
  11 C       0.0000000    1.4245400 *  1.3666156 *  2.4227548 *  3.4128395  
  12 C       1.4245400 *  0.0000000    2.4227548 *  1.3666156 *  2.1332703 *
  13 C       1.3666156 *  2.4227548 *  0.0000000    2.8094000 *  3.8955500  
  14 C       2.4227548 *  1.3666156 *  2.8094000 *  0.0000000    1.0861500 *
  15 H       3.4128395    2.1332703 *  3.8955500    1.0861500 *  0.0000000  
  16 H       6.3848640    6.9183176    5.0716017    6.3021212    7.0257833  
  17 H       4.8581952    4.0636271    4.6140085    2.7034320 *  2.4771114 *
  18 H       4.0636271    4.8581952    2.7034320 *  4.6140085    5.5611792  
  19 H       2.1332703 *  3.4128395    1.0861500 *  3.8955500    4.9817000  
  20 H       6.9183176    6.3848640    6.3021212    5.0716017    4.9542200  
  21 H       1.0852786 *  2.1737504 *  2.1296795 *  3.3957983    4.2972172  
  22 H       8.4844092    8.2727165    7.5571150    7.0791296    7.1864193  
  23 H       2.1737504 *  1.0852786 *  3.3957983    2.1296795 *  2.4618581 *
  24 H       8.2727165    8.4844092    7.0791296    7.5571150    8.0031214  

               16 H         17 H         18 H         19 H         20 H     

   1 C       3.8955500    2.7034320 *  4.6140085    6.3021212    1.0861500 *
   2 C       2.7061842 *  3.8893600    1.0869800 *  2.7061842 *  4.6134639  
   3 C       1.0861500 *  4.6140085    2.7034320 *  5.0716017    3.8955500  
   4 C       4.6134639    1.0869800 *  3.8893600    4.6134639    2.7061842 *
   5 C       3.4128395    4.0636271    4.8581952    6.9183176    2.1332703 *
   6 C       4.1004860    3.4344775    2.1480873 *  2.1692564 *  4.8992935  
   7 C       2.1332703 *  4.8581952    4.0636271    6.3848640    3.4128395  
   8 C       4.8992935    2.1480873 *  3.4344775    3.4488788    4.1004860  
   9 C       2.1692564 *  3.4344775    2.1480873 *  4.1004860    3.4488788  
  10 C       3.4488788    2.1480873 *  3.4344775    4.8992935    2.1692564 *
  11 C       6.3848640    4.8581952    4.0636271    2.1332703 *  6.9183176  
  12 C       6.9183176    4.0636271    4.8581952    3.4128395    6.3848640  
  13 C       5.0716017    4.6140085    2.7034320 *  1.0861500 *  6.3021212  
  14 C       6.3021212    2.7034320 *  4.6140085    3.8955500    5.0716017  
  15 H       7.0257833    2.4771114 *  5.5611792    4.9817000    4.9542200  
  16 H       0.0000000    5.5611792    2.4771114 *  4.9542200    4.9817000  
  17 H       5.5611792    0.0000000    4.9763400    5.5611792    2.4771114 *
  18 H       2.4771114 *  4.9763400    0.0000000    2.4771114 *  5.5611792  
  19 H       4.9542200    5.5611792    2.4771114 *  0.0000000    7.0257833  
  20 H       4.9817000    2.4771114 *  5.5611792    7.0257833    0.0000000  
  21 H       7.1864193    5.9246875    4.7654947    2.4618581 *  8.0031214  
  22 H       4.2972172    4.7654947    5.9246875    8.0031214    2.4618581 *
  23 H       8.0031214    4.7654947    5.9246875    4.2972172    7.1864193  
  24 H       2.4618581 *  5.9246875    4.7654947    7.1864193    4.2972172  

               21 H         22 H         23 H         24 H     

   1 C       7.5571150    2.1296795 *  7.0791296    3.3957983  
   2 C       4.6031576    5.3073054    5.3073054    4.6031576  
   3 C       7.0791296    3.3957983    7.5571150    2.1296795 *
   4 C       5.3073054    4.6031576    4.6031576    5.3073054  
   5 C       8.4844092    1.0852786 *  8.2727165    2.1737504 *
   6 C       3.4188139    6.1456919    3.9092029    5.8460200  
   7 C       8.2727165    2.1737504 *  8.4844092    1.0852786 *
   8 C       3.9092029    5.8460200    3.4188139    6.1456919  
   9 C       5.8460200    3.9092029    6.1456919    3.4188139  
  10 C       6.1456919    3.4188139    5.8460200    3.9092029  
  11 C       1.0852786 *  8.4844092    2.1737504 *  8.2727165  
  12 C       2.1737504 *  8.2727165    1.0852786 *  8.4844092  
  13 C       2.1296795 *  7.5571150    3.3957983    7.0791296  
  14 C       3.3957983    7.0791296    2.1296795 *  7.5571150  
  15 H       4.2972172    7.1864193    2.4618581 *  8.0031214  
  16 H       7.1864193    4.2972172    8.0031214    2.4618581 *
  17 H       5.9246875    4.7654947    4.7654947    5.9246875  
  18 H       4.7654947    5.9246875    5.9246875    4.7654947  
  19 H       2.4618581 *  8.0031214    4.2972172    7.1864193  
  20 H       8.0031214    2.4618581 *  7.1864193    4.2972172  
  21 H       0.0000000    9.5320389    2.4901800 *  9.2010200  
  22 H       9.5320389    0.0000000    9.2010200    2.4901800 *
  23 H       2.4901800 *  9.2010200    0.0000000    9.5320389  
  24 H       9.2010200    2.4901800 *  9.5320389    0.0000000  

  * ... LESS THAN  3.000


     ATOMIC BASIS SET
     ----------------
 THE CONTRACTED PRIMITIVE FUNCTIONS HAVE BEEN UNNORMALIZED
 THE CONTRACTED BASIS FUNCTIONS ARE NOW NORMALIZED TO UNITY

  SHELL TYPE  PRIMITIVE        EXPONENT          CONTRACTION COEFFICIENT(S)

 C         

      1   S       1          3047.5248800    0.001834737132
      1   S       2           457.3695180    0.014037322813
      1   S       3           103.9486850    0.068842622264
      1   S       4            29.2101553    0.232184443216
      1   S       5             9.2866630    0.467941348435
      1   S       6             3.1639270    0.362311985337

      2   L       7             7.8682723   -0.119332419775    0.068999066591
      2   L       8             1.8812885   -0.160854151696    0.316423960957
      2   L       9             0.5442493    1.143456437840    0.744308290898

      3   L      10             0.1687145    1.000000000000    1.000000000000

 C         

      4   S      11          3047.5248800    0.001834737132
      4   S      12           457.3695180    0.014037322813
      4   S      13           103.9486850    0.068842622264
      4   S      14            29.2101553    0.232184443216
      4   S      15             9.2866630    0.467941348435
      4   S      16             3.1639270    0.362311985337

      5   L      17             7.8682723   -0.119332419775    0.068999066591
      5   L      18             1.8812885   -0.160854151696    0.316423960957
      5   L      19             0.5442493    1.143456437840    0.744308290898

      6   L      20             0.1687145    1.000000000000    1.000000000000

 C         

      7   S      21          3047.5248800    0.001834737132
      7   S      22           457.3695180    0.014037322813
      7   S      23           103.9486850    0.068842622264
      7   S      24            29.2101553    0.232184443216
      7   S      25             9.2866630    0.467941348435
      7   S      26             3.1639270    0.362311985337

      8   L      27             7.8682723   -0.119332419775    0.068999066591
      8   L      28             1.8812885   -0.160854151696    0.316423960957
      8   L      29             0.5442493    1.143456437840    0.744308290898

      9   L      30             0.1687145    1.000000000000    1.000000000000

 C         

     10   S      31          3047.5248800    0.001834737132
     10   S      32           457.3695180    0.014037322813
     10   S      33           103.9486850    0.068842622264
     10   S      34            29.2101553    0.232184443216
     10   S      35             9.2866630    0.467941348435
     10   S      36             3.1639270    0.362311985337

     11   L      37             7.8682723   -0.119332419775    0.068999066591
     11   L      38             1.8812885   -0.160854151696    0.316423960957
     11   L      39             0.5442493    1.143456437840    0.744308290898

     12   L      40             0.1687145    1.000000000000    1.000000000000

 C         

     13   S      41          3047.5248800    0.001834737132
     13   S      42           457.3695180    0.014037322813
     13   S      43           103.9486850    0.068842622264
     13   S      44            29.2101553    0.232184443216
     13   S      45             9.2866630    0.467941348435
     13   S      46             3.1639270    0.362311985337

     14   L      47             7.8682723   -0.119332419775    0.068999066591
     14   L      48             1.8812885   -0.160854151696    0.316423960957
     14   L      49             0.5442493    1.143456437840    0.744308290898

     15   L      50             0.1687145    1.000000000000    1.000000000000

 C         

     16   S      51          3047.5248800    0.001834737132
     16   S      52           457.3695180    0.014037322813
     16   S      53           103.9486850    0.068842622264
     16   S      54            29.2101553    0.232184443216
     16   S      55             9.2866630    0.467941348435
     16   S      56             3.1639270    0.362311985337

     17   L      57             7.8682723   -0.119332419775    0.068999066591
     17   L      58             1.8812885   -0.160854151696    0.316423960957
     17   L      59             0.5442493    1.143456437840    0.744308290898

     18   L      60             0.1687145    1.000000000000    1.000000000000

 C         

     19   S      61          3047.5248800    0.001834737132
     19   S      62           457.3695180    0.014037322813
     19   S      63           103.9486850    0.068842622264
     19   S      64            29.2101553    0.232184443216
     19   S      65             9.2866630    0.467941348435
     19   S      66             3.1639270    0.362311985337

     20   L      67             7.8682723   -0.119332419775    0.068999066591
     20   L      68             1.8812885   -0.160854151696    0.316423960957
     20   L      69             0.5442493    1.143456437840    0.744308290898

     21   L      70             0.1687145    1.000000000000    1.000000000000

 C         

     22   S      71          3047.5248800    0.001834737132
     22   S      72           457.3695180    0.014037322813
     22   S      73           103.9486850    0.068842622264
     22   S      74            29.2101553    0.232184443216
     22   S      75             9.2866630    0.467941348435
     22   S      76             3.1639270    0.362311985337

     23   L      77             7.8682723   -0.119332419775    0.068999066591
     23   L      78             1.8812885   -0.160854151696    0.316423960957
     23   L      79             0.5442493    1.143456437840    0.744308290898

     24   L      80             0.1687145    1.000000000000    1.000000000000

 C         

     25   S      81          3047.5248800    0.001834737132
     25   S      82           457.3695180    0.014037322813
     25   S      83           103.9486850    0.068842622264
     25   S      84            29.2101553    0.232184443216
     25   S      85             9.2866630    0.467941348435
     25   S      86             3.1639270    0.362311985337

     26   L      87             7.8682723   -0.119332419775    0.068999066591
     26   L      88             1.8812885   -0.160854151696    0.316423960957
     26   L      89             0.5442493    1.143456437840    0.744308290898

     27   L      90             0.1687145    1.000000000000    1.000000000000

 C         

     28   S      91          3047.5248800    0.001834737132
     28   S      92           457.3695180    0.014037322813
     28   S      93           103.9486850    0.068842622264
     28   S      94            29.2101553    0.232184443216
     28   S      95             9.2866630    0.467941348435
     28   S      96             3.1639270    0.362311985337

     29   L      97             7.8682723   -0.119332419775    0.068999066591
     29   L      98             1.8812885   -0.160854151696    0.316423960957
     29   L      99             0.5442493    1.143456437840    0.744308290898

     30   L     100             0.1687145    1.000000000000    1.000000000000

 C         

     31   S     101          3047.5248800    0.001834737132
     31   S     102           457.3695180    0.014037322813
     31   S     103           103.9486850    0.068842622264
     31   S     104            29.2101553    0.232184443216
     31   S     105             9.2866630    0.467941348435
     31   S     106             3.1639270    0.362311985337

     32   L     107             7.8682723   -0.119332419775    0.068999066591
     32   L     108             1.8812885   -0.160854151696    0.316423960957
     32   L     109             0.5442493    1.143456437840    0.744308290898

     33   L     110             0.1687145    1.000000000000    1.000000000000

 C         

     34   S     111          3047.5248800    0.001834737132
     34   S     112           457.3695180    0.014037322813
     34   S     113           103.9486850    0.068842622264
     34   S     114            29.2101553    0.232184443216
     34   S     115             9.2866630    0.467941348435
     34   S     116             3.1639270    0.362311985337

     35   L     117             7.8682723   -0.119332419775    0.068999066591
     35   L     118             1.8812885   -0.160854151696    0.316423960957
     35   L     119             0.5442493    1.143456437840    0.744308290898

     36   L     120             0.1687145    1.000000000000    1.000000000000

 C         

     37   S     121          3047.5248800    0.001834737132
     37   S     122           457.3695180    0.014037322813
     37   S     123           103.9486850    0.068842622264
     37   S     124            29.2101553    0.232184443216
     37   S     125             9.2866630    0.467941348435
     37   S     126             3.1639270    0.362311985337

     38   L     127             7.8682723   -0.119332419775    0.068999066591
     38   L     128             1.8812885   -0.160854151696    0.316423960957
     38   L     129             0.5442493    1.143456437840    0.744308290898

     39   L     130             0.1687145    1.000000000000    1.000000000000

 C         

     40   S     131          3047.5248800    0.001834737132
     40   S     132           457.3695180    0.014037322813
     40   S     133           103.9486850    0.068842622264
     40   S     134            29.2101553    0.232184443216
     40   S     135             9.2866630    0.467941348435
     40   S     136             3.1639270    0.362311985337

     41   L     137             7.8682723   -0.119332419775    0.068999066591
     41   L     138             1.8812885   -0.160854151696    0.316423960957
     41   L     139             0.5442493    1.143456437840    0.744308290898

     42   L     140             0.1687145    1.000000000000    1.000000000000

 H         

     43   S     141            18.7311370    0.033494604338
     43   S     142             2.8253944    0.234726953484
     43   S     143             0.6401217    0.813757326146

     44   S     144             0.1612778    1.000000000000

 H         

     45   S     145            18.7311370    0.033494604338
     45   S     146             2.8253944    0.234726953484
     45   S     147             0.6401217    0.813757326146

     46   S     148             0.1612778    1.000000000000

 H         

     47   S     149            18.7311370    0.033494604338
     47   S     150             2.8253944    0.234726953484
     47   S     151             0.6401217    0.813757326146

     48   S     152             0.1612778    1.000000000000

 H         

     49   S     153            18.7311370    0.033494604338
     49   S     154             2.8253944    0.234726953484
     49   S     155             0.6401217    0.813757326146

     50   S     156             0.1612778    1.000000000000

 H         

     51   S     157            18.7311370    0.033494604338
     51   S     158             2.8253944    0.234726953484
     51   S     159             0.6401217    0.813757326146

     52   S     160             0.1612778    1.000000000000

 H         

     53   S     161            18.7311370    0.033494604338
     53   S     162             2.8253944    0.234726953484
     53   S     163             0.6401217    0.813757326146

     54   S     164             0.1612778    1.000000000000

 H         

     55   S     165            18.7311370    0.033494604338
     55   S     166             2.8253944    0.234726953484
     55   S     167             0.6401217    0.813757326146

     56   S     168             0.1612778    1.000000000000

 H         

     57   S     169            18.7311370    0.033494604338
     57   S     170             2.8253944    0.234726953484
     57   S     171             0.6401217    0.813757326146

     58   S     172             0.1612778    1.000000000000

 H         

     59   S     173            18.7311370    0.033494604338
     59   S     174             2.8253944    0.234726953484
     59   S     175             0.6401217    0.813757326146

     60   S     176             0.1612778    1.000000000000

 H         

     61   S     177            18.7311370    0.033494604338
     61   S     178             2.8253944    0.234726953484
     61   S     179             0.6401217    0.813757326146

     62   S     180             0.1612778    1.000000000000

 TOTAL NUMBER OF BASIS SET SHELLS             =   62
 NUMBER OF CARTESIAN GAUSSIAN BASIS FUNCTIONS =  146
 NUMBER OF ELECTRONS                          =   94
 CHARGE OF MOLECULE                           =    0
 SPIN MULTIPLICITY                            =    1
 NUMBER OF OCCUPIED ORBITALS (ALPHA)          =   47
 NUMBER OF OCCUPIED ORBITALS (BETA )          =   47
 TOTAL NUMBER OF ATOMS                        =   24
 THE NUCLEAR REPULSION ENERGY IS      766.3548992199

     $CONTRL OPTIONS
     ---------------
 SCFTYP=MCSCF        RUNTYP=ENERGY       EXETYP=RUN     
 MPLEVL=       0     CITYP =NONE         CCTYP =NONE         VBTYP =NONE    
 DFTTYP=NONE         TDDFT =NONE    
 MULT  =       1     ICHARG=       0     NZVAR =       0     COORD =UNIQUE  
 PP    =NONE         RELWFN=NONE         LOCAL =NONE         NUMGRD=       F
 ISPHER=      -1     NOSYM =       0     MAXIT =      90     UNITS =ANGS    
 PLTORB=       F     MOLPLT=       F     AIMPAC=       F     FRIEND=        
 NPRINT=       7     IREST =       0     GEOM  =INPUT   
 NORMF =       0     NORMP =       0     ITOL  =      20     ICUT  =       9
 INTTYP=BEST         GRDTYP=BEST         QMTTOL= 1.0E-06

     $SYSTEM OPTIONS
     ---------------
  REPLICATED MEMORY=     1000000 WORDS (ON EVERY NODE).
 DISTRIBUTED MEMDDI=           0 MILLION WORDS IN AGGREGATE,
 MEMDDI DISTRIBUTED OVER   1 PROCESSORS IS           0 WORDS/PROCESSOR.
 TOTAL MEMORY REQUESTED ON EACH PROCESSOR=     1000000 WORDS.
 TIMLIM=      525600.00 MINUTES, OR     365.0 DAYS.
 PARALL= F  BALTYP=  DLB     KDIAG=    0  COREFL= F
 MXSEQ2=     300 MXSEQ3=     150  mem10=         0  mem22=         0

 Using Gaussians for PCM contribution to MEP, params: 0.10000E+01 0.10000E-07

          ----------------
          PROPERTIES INPUT
          ----------------

     MOMENTS            FIELD           POTENTIAL          DENSITY
 IEMOM =       1   IEFLD =       0   IEPOT =       0   IEDEN =       0
 WHERE =COMASS     WHERE =NUCLEI     WHERE =NUCLEI     WHERE =NUCLEI  
 OUTPUT=BOTH       OUTPUT=BOTH       OUTPUT=BOTH       OUTPUT=BOTH    
 IEMINT=       0   IEFINT=       0                     IEDINT=       0
                                                       MORB  =       0

     -------------------------------
     INTEGRAL TRANSFORMATION OPTIONS
     -------------------------------
     NWORD  =            0
     CUTOFF = 1.0E-09     MPTRAN =       0
     DIRTRF =       F     AOINTS =DUP     

          ----------------------
          MCSCF INPUT PARAMETERS
          ----------------------
 CONVERGER SELECTION: FOCAS = F  SOSCF = T  FULLNR = F  QUD = F  JACOBI = F
 SECULAR EQUATION METHOD CISTEP = GUGA    
 --- GENERAL INPUT OPTIONS:
 MAXIT =      60  MICIT =       5  ACURCY= 1.000E-05
 DAMP  =   0.000  CANONC=       T  ENGTOL= 1.000E-10
 EKT   =       F  NPUNCH=       2  NWORD =         0
 REGENERATE CI AFTER CONVERGENCE = NONE    
 DIABATIZATION AFTER CONVERGENCE =        F
 --- INPUT FOR SOSCF CONVERGER:
 FORS  =       T  NOFO  =       1

          ----------------------
          INTEGRAL INPUT OPTIONS
          ----------------------
 NOPK  =       1 NORDER=       0 SCHWRZ=       T

     ------------------------------------------
     THE POINT GROUP IS C1 , NAXIS= 0, ORDER= 1
     ------------------------------------------

     DIMENSIONS OF THE SYMMETRY SUBSPACES ARE
 A   =  146

 ..... DONE SETTING UP THE RUN .....
 STEP CPU TIME =     0.07 TOTAL CPU TIME =          0.1 (      0.0 MIN)
 TOTAL WALL CLOCK TIME=          0.1 SECONDS, CPU UTILIZATION IS    97.50%

          ********************
          1 ELECTRON INTEGRALS
          ********************
 TIME TO DO   DIPOLE INTEGRALS=      0.03
 ...... END OF ONE-ELECTRON INTEGRALS ......
 STEP CPU TIME =     0.03 TOTAL CPU TIME =          0.1 (      0.0 MIN)
 TOTAL WALL CLOCK TIME=          0.1 SECONDS, CPU UTILIZATION IS    98.24%

          -------------
          GUESS OPTIONS
          -------------
          GUESS =MOREAD            NORB  =      48          NORDER=       0
          MIX   =       F          PRTMO =       F          PUNMO =       F
          TOLZ  = 1.0E-08          TOLE  = 1.0E-05
          SYMDEN=       F          PURIFY=       F

 **** MO FREEZING IN EFFECT ****

   40 ORBITAL(S) FROZEN

 THEIR NUMBERS IN THE ORIGINAL MO SET ARE:
    1   2   3   4   5   6   7   8   9  10
   11  12  13  14  15  16  17  18  19  20
   21  22  23  24  25  26  27  28  29  30
   31  32  33  34  35  36  37  38  39  40

 THE FROZEN MO-S WILL BE KEPT *FIRST* IN THE MO MATRIX
 IN THE SUBSEQUENT CALCULATIONS

 INITIAL GUESS ORBITALS GENERATED BY MOREAD   ROUTINE.

 SYMMETRIES FOR INITIAL GUESS ORBITALS FOLLOW.   BOTH SET(S).
    48 ORBITALS ARE OCCUPIED (   14 CORE ORBITALS).
     1=A        2=A        3=A        4=A        5=A        6=A        7=A   
     8=A        9=A       10=A       11=A       12=A       13=A       14=A   
    15=A       16=A       17=A       18=A       19=A       20=A       21=A   
    22=A       23=A       24=A       25=A       26=A       27=A       28=A   
    29=A       30=A       31=A       32=A       33=A       34=A       35=A   
    36=A       37=A       38=A       39=A       40=A       41=A       42=A   
    43=A       44=A       45=A       46=A       47=A       48=A       49=A   
    50=A       51=A       52=A       53=A       54=A       55=A       56=A   
    57=A       58=A       59=A       60=A       61=A       62=A       63=A   
    64=A       65=A       66=A       67=A       68=A       69=A       70=A   
    71=A       72=A       73=A       74=A       75=A       76=A       77=A   
    78=A       79=A       80=A       81=A       82=A       83=A       84=A   
    85=A       86=A       87=A       88=A       89=A       90=A       91=A   
    92=A       93=A       94=A       95=A       96=A       97=A       98=A   
    99=A      100=A      101=A      102=A      103=A      104=A      105=A   
   106=A      107=A      108=A      109=A      110=A      111=A      112=A   
   113=A      114=A      115=A      116=A      117=A      118=A      119=A   
   120=A      121=A      122=A      123=A      124=A      125=A      126=A   
   127=A      128=A      129=A      130=A      131=A      132=A      133=A   
   134=A      135=A      136=A      137=A      138=A      139=A      140=A   
   141=A      142=A      143=A      144=A      145=A      146=A   
 ...... END OF INITIAL ORBITAL SELECTION ......
 STEP CPU TIME =     0.02 TOTAL CPU TIME =          0.1 (      0.0 MIN)
 TOTAL WALL CLOCK TIME=          0.1 SECONDS, CPU UTILIZATION IS    98.51%

                    ----------------------
                    AO INTEGRAL TECHNOLOGY
                    ----------------------
     S,P,L SHELL ROTATED AXIS INTEGRALS, REPROGRAMMED BY
        KAZUYA ISHIMURA (IMS) AND JOSE SIERRA (SYNSTAR).
     S,P,D,L SHELL ROTATED AXIS INTEGRALS PROGRAMMED BY
        KAZUYA ISHIMURA (INSTITUTE FOR MOLECULAR SCIENCE).
     S,P,D,F,G SHELL TO TOTAL QUARTET ANGULAR MOMENTUM SUM 5,
        ERIC PROGRAM BY GRAHAM FLETCHER (ELORET AND NASA ADVANCED
        SUPERCOMPUTING DIVISION, AMES RESEARCH CENTER).
     S,P,D,F,G,L SHELL GENERAL RYS QUADRATURE PROGRAMMED BY
        MICHEL DUPUIS (PACIFIC NORTHWEST NATIONAL LABORATORY).

          --------------------
          2 ELECTRON INTEGRALS
          --------------------

 THE -PK- OPTION IS OFF, THE INTEGRALS ARE NOT IN SUPERMATRIX FORM.
 STORING   15000 INTEGRALS/RECORD ON DISK, USING 12 BYTES/INTEGRAL.
 TWO ELECTRON INTEGRAL EVALUATION REQUIRES   91309 WORDS OF MEMORY.
 SCHWARZ INEQUALITY OVERHEAD:     10132 INTEGRALS, T=        0.01
 II,JST,KST,LST =  1  1  1  1 NREC =         1 INTLOC =    1
 II,JST,KST,LST =  2  1  1  1 NREC =         1 INTLOC =    2
 II,JST,KST,LST =  3  1  1  1 NREC =         1 INTLOC =   34
 II,JST,KST,LST =  4  1  1  1 NREC =         1 INTLOC =  214
 II,JST,KST,LST =  5  1  1  1 NREC =         1 INTLOC =  361
 II,JST,KST,LST =  6  1  1  1 NREC =         1 INTLOC = 2045
 II,JST,KST,LST =  7  1  1  1 NREC =         1 INTLOC = 6326
 II,JST,KST,LST =  8  1  1  1 NREC =         1 INTLOC = 7554
 II,JST,KST,LST =  9  1  1  1 NREC =         2 INTLOC = 1294
 II,JST,KST,LST = 10  1  1  1 NREC =         3 INTLOC = 1322
 II,JST,KST,LST = 11  1  1  1 NREC =         3 INTLOC = 4806
 II,JST,KST,LST = 12  1  1  1 NREC =         4 INTLOC =14560
 II,JST,KST,LST = 13  1  1  1 NREC =         7 INTLOC = 9297
 II,JST,KST,LST = 14  1  1  1 NREC =         8 INTLOC = 3039
 II,JST,KST,LST = 15  1  1  1 NREC =        11 INTLOC = 9797
 II,JST,KST,LST = 16  1  1  1 NREC =        17 INTLOC = 1617
 II,JST,KST,LST = 17  1  1  1 NREC =        18 INTLOC =  406
 II,JST,KST,LST = 18  1  1  1 NREC =        23 INTLOC = 7148
 II,JST,KST,LST = 19  1  1  1 NREC =        32 INTLOC = 6795
 II,JST,KST,LST = 20  1  1  1 NREC =        34 INTLOC = 2628
 II,JST,KST,LST = 21  1  1  1 NREC =        43 INTLOC = 9452
 II,JST,KST,LST = 22  1  1  1 NREC =        57 INTLOC =13329
 II,JST,KST,LST = 23  1  1  1 NREC =        60 INTLOC = 3849
 II,JST,KST,LST = 24  1  1  1 NREC =        73 INTLOC = 5966
 II,JST,KST,LST = 25  1  1  1 NREC =        94 INTLOC =  379
 II,JST,KST,LST = 26  1  1  1 NREC =        99 INTLOC = 4343
 II,JST,KST,LST = 27  1  1  1 NREC =       125 INTLOC =13703
 II,JST,KST,LST = 28  1  1  1 NREC =       158 INTLOC =11701
 II,JST,KST,LST = 29  1  1  1 NREC =       166 INTLOC =10283
 II,JST,KST,LST = 30  1  1  1 NREC =       205 INTLOC = 1175
 II,JST,KST,LST = 31  1  1  1 NREC =       251 INTLOC = 2168
 II,JST,KST,LST = 32  1  1  1 NREC =       254 INTLOC = 3099
 II,JST,KST,LST = 33  1  1  1 NREC =       274 INTLOC = 8233
 II,JST,KST,LST = 34  1  1  1 NREC =       313 INTLOC = 9727
 II,JST,KST,LST = 35  1  1  1 NREC =       318 INTLOC = 5856
 II,JST,KST,LST = 36  1  1  1 NREC =       346 INTLOC =11658
 II,JST,KST,LST = 37  1  1  1 NREC =       396 INTLOC = 7391
 II,JST,KST,LST = 38  1  1  1 NREC =       405 INTLOC = 5003
 II,JST,KST,LST = 39  1  1  1 NREC =       455 INTLOC = 4809
 II,JST,KST,LST = 40  1  1  1 NREC =       530 INTLOC = 8756
 II,JST,KST,LST = 41  1  1  1 NREC =       541 INTLOC =12962
 II,JST,KST,LST = 42  1  1  1 NREC =       605 INTLOC =13879
 II,JST,KST,LST = 43  1  1  1 NREC =       700 INTLOC = 2830
 II,JST,KST,LST = 44  1  1  1 NREC =       716 INTLOC = 8552
 II,JST,KST,LST = 45  1  1  1 NREC =       743 INTLOC = 1640
 II,JST,KST,LST = 46  1  1  1 NREC =       759 INTLOC =14647
 II,JST,KST,LST = 47  1  1  1 NREC =       787 INTLOC = 7420
 II,JST,KST,LST = 48  1  1  1 NREC =       809 INTLOC =14325
 II,JST,KST,LST = 49  1  1  1 NREC =       843 INTLOC =10234
 II,JST,KST,LST = 50  1  1  1 NREC =       867 INTLOC = 2270
 II,JST,KST,LST = 51  1  1  1 NREC =       902 INTLOC = 9151
 II,JST,KST,LST = 52  1  1  1 NREC =       922 INTLOC = 7244
 II,JST,KST,LST = 53  1  1  1 NREC =       954 INTLOC =13276
 II,JST,KST,LST = 54  1  1  1 NREC =       975 INTLOC = 4664
 II,JST,KST,LST = 55  1  1  1 NREC =      1008 INTLOC =12492
 II,JST,KST,LST = 56  1  1  1 NREC =      1025 INTLOC = 7039
 II,JST,KST,LST = 57  1  1  1 NREC =      1052 INTLOC =11510
 II,JST,KST,LST = 58  1  1  1 NREC =      1069 INTLOC =11294
 II,JST,KST,LST = 59  1  1  1 NREC =      1097 INTLOC = 9367
 II,JST,KST,LST = 60  1  1  1 NREC =      1115 INTLOC =10114
 II,JST,KST,LST = 61  1  1  1 NREC =      1144 INTLOC =13600
 II,JST,KST,LST = 62  1  1  1 NREC =      1163 INTLOC = 4990
 SCHWARZ INEQUALITY TEST SKIPPED     1032288 INTEGRAL BLOCKS.
 TOTAL NUMBER OF NONZERO TWO-ELECTRON INTEGRALS =            17882623
       1193 INTEGRAL RECORDS WERE STORED ON DISK FILE  8.
  ...... END OF TWO-ELECTRON INTEGRALS .....
 STEP CPU TIME =     2.55 TOTAL CPU TIME =          2.7 (      0.0 MIN)
 TOTAL WALL CLOCK TIME=          2.7 SECONDS, CPU UTILIZATION IS    99.89%

          -----------------
          MCSCF CALCULATION
          -----------------

 ----- NUCLEAR ENERGY ----- =       766.3548992199

          -----------------------     ----------------------------
          GUGA DISTINCT ROW TABLE     WRITTEN BY B.R.BROOKS,P.SAXE
          -----------------------     ----------------------------

      GROUP=C1           NPRT=       0
       FORS=       T   INTACT=       F
       FOCI=       F   MXNINT=   50000
       SOCI=       F   MXNEME=   10000
     IEXCIT=       0

      -CORE-    -INTERNAL-  -EXTERNAL-
     NFZC=   0   NDOC=   1   NEXT=   0
     NMCC=  46   NAOS=   0   NFZV=   0
                 NBOS=   0
                 NALP=   0
                 NVAL=   1

 THE MAXIMUM ELECTRON EXCITATION WILL BE   2

 SYMMETRIES FOR THE  46 CORE,   2 ACTIVE,   0 EXTERNAL MO-S ARE
     CORE= A     A     A     A     A     A     A     A     A     A   
           A     A     A     A     A     A     A     A     A     A   
           A     A     A     A     A     A     A     A     A     A   
           A     A     A     A     A     A     A     A     A     A   
           A     A     A     A     A     A   
   ACTIVE= A     A   
           DOC   VAL 

 MOLECULAR CHARGE          =    0
 NUMBER OF ALPHA ELECTRONS =   47
 NUMBER OF  BETA ELECTRONS =   47

 THE ELECTRONIC STATE IS  1-A   

 THE DISTINCT ROW TABLE HAS         5 ROWS.
  THE WAVEFUNCTION CONTAINS         3 WALKS (CSF-S).

 TOTAL NUMBER OF INTEGRALS =          9
 NUMBER OF INTEGRALS/GROUP =          9
 NUMBER OF INTEGRAL GROUPS =          1
 MAXIMUM RECORD SIZES ARE     500 FOR UNIT 11      22 FOR UNIT 12
                            30001 FOR UNIT 15   30001 FOR UNIT 16
 ...... END OF -DRT- GENERATION ...... 
 STEP CPU TIME =     0.01 TOTAL CPU TIME =          2.7 (      0.0 MIN)
 TOTAL WALL CLOCK TIME=          2.7 SECONDS, CPU UTILIZATION IS    99.89%
 OPENING FILE DAFL30 WITH      81 LOGICAL RECORDS OF   21316 WORDS
 WITH A MAXIMUM OF         891 PHYSICAL RECORDS OF    2048 WORDS

          ------------------------------
          CASSCF INTEGRAL TRANSFORMATION
          ------------------------------
 AO INTEGRALS WILL BE READ IN FROM DISK...

 NUMBER OF CORE MOLECULAR ORBITALS     =    46
 NUMBER OF OCCUPIED MOLECULAR ORBITALS =    48
 TOTAL NUMBER OF MOLECULAR ORBITALS    =   146
 TOTAL NUMBER OF ATOMIC ORBITALS       =   146
 MEMORY WHICH WOULD BE NEEDED FOR SINGLE PASS TRANSFORMATION =    3279301

 ----- CHOOSING THREE STEPS TRANSFORMATION -----
 NUMBER OF WORDS USED      =     937334
 NUMBER OF WORDS AVAILABLE =     999999
 NUMBER OF PASSES          =          4
 PASS #   1 COMPLETED IN         0.5 SECONDS.
 PASS #   2 COMPLETED IN         0.3 SECONDS.
 PASS #   3 COMPLETED IN         0.3 SECONDS.
 PASS #   4 COMPLETED IN         0.3 SECONDS.

 ----- NUCLEAR REPULSION ENERGY =    766.35489922
 ----- FROZEN CORE ENERGY       =  -1299.27306758

 ... SYMMETRY ...           CPU =    0.00
 ... (PQ|RS) -> (PQ|KL) ... CPU =    1.36
 ... (PQ|KL) -> (IJ|KL) ... CPU =    0.01

 NUMBER OF (PQ|KL) INTEGRALS WRITTEN      17990
 NUMBER OF (IJ|KL) INTEGRALS WRITTEN          6
 ..... END OF CAS INTEGRAL TRANSFORMATION .....
 STEP CPU TIME =     1.38 TOTAL CPU TIME =          4.1 (      0.1 MIN)
 TOTAL WALL CLOCK TIME=          4.1 SECONDS, CPU UTILIZATION IS    99.92%

          ------------------------
          GUGA-CI INTEGRAL SORTING
          ------------------------

     80017 WORDS NEEDED TO SORT              9 GUGA INTEGRALS IN MEMORY
    999999 WORDS ARE AVAILABLE
 CHOOSING IN-MEMORY SORTING...
 IN CORE ALGORITHM SORTED              3 NON-ZERO 1E- INTEGRALS
 IN CORE ALGORITHM SORTED              6 NON-ZERO 2E- INTEGRALS
 ...... END OF INTEGRAL SORTING ...... 
 STEP CPU TIME =     0.00 TOTAL CPU TIME =          4.1 (      0.1 MIN)
 TOTAL WALL CLOCK TIME=          4.1 SECONDS, CPU UTILIZATION IS    99.92%

 -------------------------     ---------------------------------------
 ENERGY MATRIX CALCULATION     WRITTEN BY B.R.BROOKS,W.D.LAIDIG,P.SAXE
 -------------------------     ---------------------------------------

 COMPUTING THE HAMILTONIAN FOR THE         3 CSF-S...

           8 IS THE TOTAL NUMBER OF GENERATED LOOPS
           8 WERE CREATED BY THE LOOP-DRIVEN ALGORITHM
           0 WERE CREATED IMPLICITLY

           8 IS THE TOTAL NUMBER OF PROCESSED LOOPS
           5     DIAGONAL LOOPS ARE STORED ON WORK15 IN     1 BUFFERS OF  10000 ELEMENTS.
           3 OFF DIAGONAL LOOPS ARE STORED ON WORK16 IN     1 BUFFERS OF  10000 ELEMENTS.
 ...... END OF ENERGY MATRIX CALCULATION ...... 
 STEP CPU TIME =     0.00 TOTAL CPU TIME =          4.1 (      0.1 MIN)
 TOTAL WALL CLOCK TIME=          4.1 SECONDS, CPU UTILIZATION IS    99.92%

          -----------------------------------------
          DAVIDSON METHOD CI-MATRIX DIAGONALIZATION
                   WRITTEN BY STEVE ELBERT
          -----------------------------------------
 NUMBER OF STATES REQUESTED =     2
 MAX. NUMB. OF EXPAN. VEC   =    30
 MAX. NUMB. IMPROVED STATES =     2
 MAX. NUMB. OF ITERATIONS   =    50
 CONVERGENCE CRITERION      =    1.0E-05

 CHOOSING TO SOLVE SECULAR EQUATION IN MEMORY
 NUMBER OF WORDS AVAILABLE =     999999
 NUMBER OF WORDS USED      =      31110
 ENERGY MATRIX BUFFER SIZE =      10000
 SOLUTION FOUND WITH DIRECT METHOD

 STATE #    1  ENERGY =    -533.860592493

      CSF      COEF    OCCUPANCY (IGNORING CORE)
      ---      ----    --------- --------- -----
        1    0.981563  20
        3   -0.190383  02

 STATE #    2  ENERGY =    -533.521188866

      CSF      COEF    OCCUPANCY (IGNORING CORE)
      ---      ----    --------- --------- -----
        2    0.999715  11

 RENORMALIZED DAVIDSON CORRECTION FOR     1-REFERENCE CI.
 C0SQ= 0.963465 EREF=     -533.842355 E-E(REF)=   0.018237 E(Q)=   0.000692
 GIVES A E(SD+Q) ESTIMATE OF     -533.8612840508
 ...... END OF CI-MATRIX DIAGONALIZATION ......
 STEP CPU TIME =     0.00 TOTAL CPU TIME =          4.1 (      0.1 MIN)
 TOTAL WALL CLOCK TIME=          4.1 SECONDS, CPU UTILIZATION IS    99.92%

          -------------------------------------
          2-PARTICLE DENSITY MATRIX CALCULATION
          -------------------------------------
 2 BODY DENSITY IS AN AVERAGE OF  1 STATE(S).
   STATE    WEIGHT          ENERGY
     1    1.000000     -533.8605924927
            8 -DM2- LOOPS WERE GENERATED
            8 WERE CREATED BY THE LOOP-DRIVEN ALGORITHM
            0 WERE CREATED IMPLICITLY
          1 RECORDS OF LENGTH 50000 WRITTEN TO FILE 15
 ...... END OF 2-PARTICLE DENSITY MATRIX CALCULATION ......
 STEP CPU TIME =     0.00 TOTAL CPU TIME =          4.1 (      0.1 MIN)
 TOTAL WALL CLOCK TIME=          4.1 SECONDS, CPU UTILIZATION IS    99.92%

          ----------------------------------
          2-PARTICLE DENSITY MATRIX LABELING
          ----------------------------------
      97574 WORDS NEEDED TO LABEL DM2 MATRIX
          1 RECORDS OF LENGTH 50000  READ FROM FILE 15
          1 RECORDS OF LENGTH 15000 WRITTEN TO FILE 16
 ...... END OF 2-PARTICLE DENSITY MATRIX LABELING ......
 STEP CPU TIME =     0.00 TOTAL CPU TIME =          4.1 (      0.1 MIN)
 TOTAL WALL CLOCK TIME=          4.1 SECONDS, CPU UTILIZATION IS    99.92%

          --------------
          -DM2- ORDERING
          --------------
      30010 WORDS NEEDED (    999999 AVAILABLE) TO ORDER DM2 IN MEMORY
 CHOOSING IN MEMORY ORDERING...
                               1 RECORDS OF LENGTH 15000  READ FROM FILE 16
          6 DM2 VALUES IN      1 RECORDS OF LENGTH 15000 WRITTEN TO FILE 15
 ...... END OF -DM2- ORDERING ...... 
 STEP CPU TIME =     0.00 TOTAL CPU TIME =          4.1 (      0.1 MIN)
 TOTAL WALL CLOCK TIME=          4.1 SECONDS, CPU UTILIZATION IS    99.91%

          --------------------------------------
          APPROXIMATE SECOND-ORDER MCSCF PROGRAM
          --------------------------------------
          PROGRAM WRITTEN BY G.CHABAN, A.MARQUEZ, AND M.DUPUIS

  NUMBER OF WORDS NEEDED     =     195101
  NUMBER AVAILABLE           =     999999

 ----- GAMMA(IJKL)*(PQ|KL) PRODUCTS ----- CPU TIME =      0.001
 ----- ORBITAL SYMMETRY             ----- CPU TIME =      0.000
 ----- FOCK OPERATORS CONSTRUCTION  ----- CPU TIME =      0.324
 ----- WARNING : CORE-ACTIVE GAP    =    0.00824
     MICIT =   1 ASYMM =    2.379728 ROTMAX =    0.214658
 ----- EFFECTIVE FOCK + ROTATE ORBS ----- CPU TIME =      0.013
 ..... DONE WITH CASSCF ORBITAL UPDATE .....
 STEP CPU TIME =     0.34 TOTAL CPU TIME =          4.4 (      0.1 MIN)
 TOTAL WALL CLOCK TIME=          4.4 SECONDS, CPU UTILIZATION IS    99.92%

 ITER     TOTAL ENERGY      DEL(E)  LAGRANGIAN ASYMMETRY   SQCDF  MICIT   DAMP
   1     -533.860592493 -0.860592493  2.379728  132    1 2.147E-01  1   0.0000
   2     -530.777070767  0.083521725  5.404634  136    1 2.876E-01  5   0.0000
   3     -529.320593269  0.456477498  4.972954  115    1 3.181E-01  5   0.0000
   4     -527.893094760  0.427498509  3.953032  127    1 3.492E-01  5   0.0000
   5     -526.367216187  0.525878573  4.377191   51    1 3.818E-01  5   0.0000
   6     -525.077587818  0.289628369  4.209435   51    1 4.000E-01  5   0.0000
   7     -523.183628167  0.893959651  4.242449   51    1 4.000E-01  5   0.0000
   8     -522.160016595  0.023611572  4.269106   51    1 4.000E-01  5   0.0000
   9     -521.235174850  0.924841745  4.481166   51    1 4.000E-01  5   0.0000
  10     -520.639630580  0.595544270  4.527625   51    1 4.000E-01  5   0.0000
  11     -520.671674004 -0.032043425  4.609049   51    1 4.000E-01  5   0.0000
  12     -519.990329820  0.681344184  4.554885   51    1 4.000E-01  5   0.0000
  13     -519.323900847  0.666428973  4.455152   51    1 4.000E-01  5   0.0000
  14     -519.558201587 -0.234300740  4.542874   51    1 4.000E-01  5   0.0000
  15     -520.793617029 -0.235415442  4.701244   51    1 4.000E-01  5   0.0000
  16     -520.381909160  0.411707869  4.827108   51    1 4.000E-01  5   0.0000
  17     -519.099285182  0.282623978  4.527615   51    1 4.000E-01  5   0.0000
  18     -519.069243004  0.030042178  4.541926   51    1 4.000E-01  5   0.0000
  19     -518.541986034  0.527256970  4.435719   51    1 4.000E-01  5   0.0000
  20     -519.954587143 -0.412601109  4.713340   51    1 4.000E-01  5   0.0000
  21     -521.154980286 -0.200393143  4.805721   51    1 4.000E-01  5   0.0000
  22     -521.879794780 -0.724814494  5.011498   50    1 4.000E-01  5   0.0000
  23     -523.887146278 -0.007351498  4.731318   51    1 4.000E-01  5   0.0000
  24     -526.523346631 -0.636200353  4.828958   51    1 4.000E-01  5   0.0000
  25     -526.296513727  0.226832904  4.950610   51    1 4.000E-01  5   0.0000
  26     -526.326296907 -0.029783180  4.809361   91    1 4.000E-01  5   0.0000
  27     -525.314772258  0.011524649  4.833332   49    1 4.000E-01  5   0.0000
  28     -525.208479071  0.106293186  4.234839   49    1 4.000E-01  5   0.0000
  29     -524.109173575  0.099305496  4.331030   49    1 4.000E-01  5   0.0000
  30     -522.258230204  0.850943371  4.184568   49    1 4.000E-01  5   0.0000
  31     -522.997328187 -0.739097983  3.889653   49    1 4.000E-01  5   0.0000
  32     -521.831041385  0.166286802  3.929298   49    1 4.000E-01  5   0.0000
  33     -520.870271881  0.960769504  3.839608   49    1 4.000E-01  5   0.0000
  34     -520.558170892  0.312100989  3.835680   49    1 4.000E-01  5   0.0000
  35     -520.328443859  0.229727033  3.843787   49    1 4.000E-01  5   0.0000
  36     -520.203264236  0.125179623  3.897877   49    1 4.000E-01  5   0.0000
  37     -520.902518577 -0.699254341  4.124190   49    1 4.000E-01  5   0.0000
  38     -521.529041045 -0.626522468  3.983486   49    1 4.000E-01  5   0.0000
  39     -522.763900627 -0.234859582  3.913021   49    1 4.000E-01  5   0.0000
  40     -520.822770740  0.941129886  3.873023   49    1 4.000E-01  5   0.0000
  41     -520.750878413  0.071892327  3.900557   49    1 4.000E-01  5   0.0000
  42     -521.782154334 -0.031275921  4.091310   49    1 4.000E-01  5   0.0000
  43     -521.017194549  0.764959785  4.015296   49    1 4.000E-01  5   0.0000
  44     -520.339782284  0.677412266  3.803495   49    1 4.000E-01  5   0.0000
  45     -520.698640969 -0.358858685  3.879164   50    1 4.000E-01  5   0.0000
  46     -521.708951333 -0.010310364  4.155066   50    1 4.000E-01  5   0.0000
  47     -522.440113888 -0.731162555  4.179211   49    1 4.000E-01  5   0.0000
  48     -522.506135394 -0.066021506  4.331045   49    1 4.000E-01  5   0.0000
  49     -522.238564964  0.267570430  4.430532   49    1 4.000E-01  5   0.0000
  50     -520.952248173  0.286316791  4.202926   49    1 4.000E-01  5   0.0000
  51     -523.091879336 -0.139631163  4.606368   49    1 4.000E-01  5   0.0000
  52     -525.285907513 -0.194028177  4.714586   49    1 4.000E-01  5   0.0000
  53     -524.683051354  0.602856159  4.485753   49    1 4.000E-01  5   0.0000
  54     -525.529174734 -0.846123380  4.599295   49    1 4.000E-01  5   0.0000
  55     -527.259961859 -0.730787126  4.444837   93    1 4.000E-01  5   0.0000
  56     -525.177626972  0.082334888  4.438209   49    1 4.000E-01  5   0.0000
  57     -525.375461054 -0.197834083  4.460562   51    1 4.000E-01  5   0.0000
  58     -525.218852310  0.156608744  4.261229   51    1 4.000E-01  5   0.0000
  59     -525.303335708 -0.084483398  4.775226   51    1 4.000E-01  5   0.0000
  60     -526.327147778 -0.023812070  4.924351   49    1 4.000E-01  5   0.0000
 EXCESSIVE NUMBER OF ITERATIONS...
 MCSCF IS NOT CONVERGED!
 A $VEC GROUP OF CURRENT MO-S IS IN THE PUNCH FILE
 USE THIS WITH GUESS=MOREAD TO RESTART THIS RUN

 FINAL MCSCF ENERGY IS        0.0000000000 AFTER  60 ITERATIONS

 -MCCI- BASED ON OPTIMIZED ORBITALS
 ----------------------------------

 PLEASE NOTE: IF THE ACTIVE ORBITALS ARE CANONICALIZED BELOW,
 THE FOLLOWING CI EXPANSION COEFFICIENTS AND THE DENSITY DO NOT
 CORRESPOND TO THE PRINTED ORBITALS.  THE PRINTED EXPANSIONS MATCH
 THE ORBITALS USED DURING THE LAST ITERATION.  IF YOU WISH TO SEE
 CI EXPANSIONS BASED ON THE CANONICAL (OR NATURAL) ORBITALS, YOU
 MUST RUN A CI CALCULATION WITH THAT ORBITAL CHOICE READ IN $VEC.

 STATE #    1  ENERGY =    -526.327147778

      CSF      COEF    OCCUPANCY (IGNORING CORE)
      ---      ----    --------- --------- -----
        1    0.981313  20
        2    0.010678  11
        3   -0.192123  02

 STATE #    2  ENERGY =    -525.990165670

      CSF      COEF    OCCUPANCY (IGNORING CORE)
      ---      ----    --------- --------- -----
        1   -0.012454  20
        2    0.999890  11
        3   -0.008038  02

 DENSITY MATRIX OVER ACTIVE MO-S

             1           2

    1    1.9260634
    2    0.0119180   0.0739366

 FORMING THE "STANDARD FOCK OPERATOR" USING INTEGRALS FROM DISK...
    46 FILLED,    2 ACTIVE, AND   98 VIRTUAL ORBITALS  WILL BE CANONICALIZED

          ----------------------
          MCSCF NATURAL ORBITALS
          ----------------------

                      1          2          3          4          5
                  -11.3518   -11.3299   -11.3089   -11.2589   -11.2581
                     A          A          A          A          A   
    1  C  1  S   -0.004297   0.000440  -0.009732   0.012313   0.007690
    2  C  1  S    0.000338   0.000001  -0.000630   0.000131  -0.000058
    3  C  1  X   -0.000000   0.000000   0.000000   0.000000   0.000000
    4  C  1  Y   -0.000533   0.000110  -0.000496   0.000135   0.000021
    5  C  1  Z   -0.000216   0.000082  -0.000347   0.000004  -0.000072
    6  C  1  S   -0.008777  -0.000701  -0.001279   0.001818   0.002290
    7  C  1  X   -0.000000   0.000000   0.000000   0.000000   0.000000
    8  C  1  Y    0.000805   0.000533   0.005339  -0.000705  -0.000589
    9  C  1  Z   -0.002669  -0.001930  -0.002552   0.001449   0.001623
   10  C  2  S   -0.004428   0.009098   0.004301   0.991823  -0.085841
   11  C  2  S   -0.000032   0.002079   0.001393   0.025071  -0.002091
   12  C  2  X   -0.000000   0.000000   0.000000   0.000000   0.000000
   13  C  2  Y   -0.000689   0.000323   0.000328  -0.000304   0.000142
   14  C  2  Z    0.000091  -0.000349  -0.000325  -0.000554  -0.000053
   15  C  2  S   -0.003597  -0.013772  -0.006082  -0.020159   0.002063
   16  C  2  X   -0.000000   0.000000   0.000000   0.000000   0.000000
   17  C  2  Y   -0.001559   0.000441   0.000558   0.000369  -0.000640
   18  C  2  Z    0.001293   0.006283   0.001835   0.004778   0.000004
   19  C  3  S   -0.008530   0.003028  -0.009063   0.083996   0.985106
   20  C  3  S    0.000404  -0.000534   0.000256   0.001998   0.024868
   21  C  3  X   -0.000000   0.000000   0.000000   0.000000   0.000000
   22  C  3  Y    0.000166   0.000111   0.000109  -0.000004   0.000247
   23  C  3  Z    0.000434   0.000002   0.000076  -0.000067  -0.000392
   24  C  3  S    0.000743   0.006688   0.002190  -0.001576  -0.020142
   25  C  3  X   -0.000000   0.000000   0.000000   0.000000   0.000000
   26  C  3  Y   -0.001726  -0.000018  -0.001375   0.000242  -0.000469
   27  C  3  Z   -0.001803  -0.003338  -0.001393   0.000641   0.005035
   28  C  4  S   -0.004512   0.001318  -0.002926   0.004769   0.003432
   29  C  4  S   -0.001089  -0.000096  -0.001451   0.000253   0.000017
   30  C  4  X   -0.000000   0.000000   0.000000   0.000000   0.000000
   31  C  4  Y    0.000279   0.000322  -0.000341  -0.000041  -0.000026
   32  C  4  Z   -0.000404   0.000378  -0.000368  -0.000016  -0.000003
   33  C  4  S    0.010163   0.004771   0.012672  -0.003229  -0.000603
   34  C  4  X   -0.000000   0.000000   0.000000   0.000000   0.000000
   35  C  4  Y    0.001470  -0.003032  -0.005578  -0.000279  -0.000040
   36  C  4  Z    0.009716   0.001557   0.004129  -0.001491  -0.000229
   37  C  5  S   -0.000576   0.000116  -0.000912   0.010007   0.053469
   38  C  5  S   -0.000757   0.000007  -0.000395   0.000288   0.001333
   39  C  5  X   -0.000000   0.000000   0.000000   0.000000   0.000000
   40  C  5  Y   -0.000188   0.000012  -0.000145  -0.000013   0.000030
   41  C  5  Z   -0.000036   0.000030   0.000018  -0.000038  -0.000171
   42  C  5  S    0.005475   0.001348   0.004850  -0.002074  -0.003957
   43  C  5  X   -0.000000   0.000000   0.000000   0.000000   0.000000
   44  C  5  Y    0.003138   0.000888   0.002264  -0.000844  -0.001686
   45  C  5  Z    0.000098   0.000282  -0.001354   0.000014  -0.000652
   46  C  6  S   -0.351385  -0.680144  -0.375486  -0.013159  -0.017243
   47  C  6  S   -0.007757  -0.015974  -0.008329  -0.001321  -0.000361
   48  C  6  X   -0.000000   0.000000   0.000000   0.000000   0.000000
   49  C  6  Y    0.000961   0.001360   0.001287   0.000243   0.000044
   50  C  6  Z   -0.000353  -0.001675  -0.001490  -0.000164  -0.000108
   51  C  6  S    0.010652   0.030072   0.012340   0.009597   0.000403
   52  C  6  X   -0.000000   0.000000   0.000000   0.000000   0.000000
   53  C  6  Y   -0.008502   0.003459   0.003781  -0.002120   0.000600
   54  C  6  Z   -0.007568   0.000215   0.001775   0.000583   0.000693
   55  C  7  S    0.000714   0.000054   0.001501   0.007956   0.104300
   56  C  7  S    0.000896  -0.000026   0.000630  -0.000061   0.001552
   57  C  7  X   -0.000000   0.000000   0.000000   0.000000   0.000000
   58  C  7  Y    0.000680  -0.000233   0.000389  -0.000083  -0.000147
   59  C  7  Z   -0.000419   0.000091  -0.000219   0.000059  -0.000020
   60  C  7  S   -0.003796  -0.003126  -0.002443   0.001550   0.007487
   61  C  7  X   -0.000000   0.000000   0.000000   0.000000   0.000000
   62  C  7  Y   -0.002769  -0.001257  -0.002186   0.001244   0.004420
   63  C  7  Z    0.001126  -0.000332   0.000096  -0.000461  -0.000601
   64  C  8  S   -0.073001   0.691071  -0.541757  -0.021634  -0.018484
   65  C  8  S   -0.000552   0.014863  -0.010629  -0.000539  -0.000438
   66  C  8  X   -0.000000   0.000000   0.000000   0.000000   0.000000
   67  C  8  Y   -0.000375   0.000929  -0.000960   0.000088  -0.000004
   68  C  8  Z    0.000368   0.001198  -0.001157  -0.000258  -0.000113
   69  C  8  S   -0.011333  -0.016515  -0.003419  -0.001545  -0.000072
   70  C  8  X   -0.000000   0.000000   0.000000   0.000000   0.000000
   71  C  8  Y    0.011515  -0.004622  -0.003044  -0.003223  -0.001348
   72  C  8  Z   -0.007889  -0.006682   0.000266  -0.000571   0.000820
   73  C  9  S    0.794961  -0.114429   0.217654  -0.015621  -0.004735
   74  C  9  S    0.016764  -0.002552   0.005013  -0.001489  -0.001034
   75  C  9  X   -0.000000   0.000000   0.000000   0.000000   0.000000
   76  C  9  Y   -0.000562  -0.000189  -0.000416  -0.000328   0.000310
   77  C  9  Z   -0.003223   0.000495  -0.001578  -0.000014  -0.000044
   78  C  9  S   -0.009540   0.004269  -0.003588   0.009490   0.008034
   79  C  9  X   -0.000000   0.000000   0.000000   0.000000   0.000000
   80  C  9  Y    0.000114   0.009258   0.004648   0.003739  -0.004560
   81  C  9  Z    0.006511  -0.000053   0.005145  -0.000146  -0.000652
   82  C 10  S   -0.482407   0.201658   0.714841  -0.023234  -0.008688
   83  C 10  S   -0.010827   0.004276   0.014896  -0.000585  -0.000161
   84  C 10  X   -0.000000   0.000000   0.000000   0.000000   0.000000
   85  C 10  Y    0.000127   0.000103   0.001766  -0.000210   0.000066
   86  C 10  Z    0.000508  -0.000740  -0.002891   0.000007  -0.000038
   87  C 10  S    0.008326  -0.005720  -0.012139  -0.001001  -0.002487
   88  C 10  X   -0.000000   0.000000   0.000000   0.000000   0.000000
   89  C 10  Y   -0.006928  -0.004611  -0.009717   0.001604   0.000877
   90  C 10  Z    0.001165   0.002785   0.010617  -0.001347  -0.001327
   91  C 11  S    0.000370   0.000444   0.000778  -0.000215   0.000322
   92  C 11  S   -0.000102  -0.000607  -0.000929  -0.000183  -0.000077
   93  C 11  X   -0.000000   0.000000   0.000000   0.000000   0.000000
   94  C 11  Y    0.000147  -0.000084  -0.000208  -0.000036  -0.000019
   95  C 11  Z   -0.000376   0.000132   0.000099   0.000074   0.000019
   96  C 11  S    0.003405   0.005792   0.007686   0.001532   0.000570
   97  C 11  X   -0.000000   0.000000   0.000000   0.000000   0.000000
   98  C 11  Y   -0.001804  -0.003894  -0.003973  -0.001088  -0.000288
   99  C 11  Z    0.002603  -0.005097  -0.003637  -0.001252  -0.000488
  100  C 12  S    0.000133   0.000147   0.000244   0.000371   0.000422
  101  C 12  S   -0.000462   0.000599   0.001004   0.000219   0.000133
  102  C 12  X   -0.000000   0.000000   0.000000   0.000000   0.000000
  103  C 12  Y   -0.000021  -0.000052  -0.000073   0.000011  -0.000004
  104  C 12  Z   -0.000136  -0.000082   0.000098  -0.000003   0.000007
  105  C 12  S    0.000545  -0.009414  -0.006994  -0.002682  -0.000749
  106  C 12  X   -0.000000   0.000000   0.000000   0.000000   0.000000
  107  C 12  Y    0.000567   0.004125   0.003927   0.001182   0.000395
  108  C 12  Z    0.001297  -0.003045  -0.003318  -0.000730  -0.000454
  109  C 13  S   -0.002104  -0.000191   0.000294   0.000858   0.001760
  110  C 13  S    0.000175   0.001350   0.001190   0.000112   0.000126
  111  C 13  X   -0.000000   0.000000   0.000000   0.000000   0.000000
  112  C 13  Y    0.000302  -0.000025  -0.000134  -0.000018  -0.000026
  113  C 13  Z   -0.000115   0.000176   0.000011  -0.000003   0.000013
  114  C 13  S    0.001671  -0.013220  -0.010555  -0.001781  -0.000984
  115  C 13  X   -0.000000   0.000000   0.000000   0.000000   0.000000
  116  C 13  Y   -0.005684   0.006621   0.003083   0.000958   0.000525
  117  C 13  Z    0.000861   0.005615   0.005307   0.001052   0.000282
  118  C 14  S   -0.001480   0.000651   0.005393   0.003954   0.002983
  119  C 14  S    0.000769  -0.000643  -0.000659  -0.000335  -0.000108
  120  C 14  X   -0.000000   0.000000   0.000000   0.000000   0.000000
  121  C 14  Y    0.000020  -0.000182   0.000199  -0.000081   0.000000
  122  C 14  Z   -0.000069  -0.000186   0.000551   0.000034   0.000048
  123  C 14  S   -0.006548   0.008630   0.007446   0.003677   0.001583
  124  C 14  X   -0.000000   0.000000   0.000000   0.000000   0.000000
  125  C 14  Y    0.003987  -0.000190  -0.002007  -0.000391  -0.000653
  126  C 14  Z   -0.001374   0.006399   0.002799   0.002208   0.000550
  127  H 15  S    0.000288   0.000199  -0.000305   0.000029  -0.000055
  128  H 15  S   -0.000695   0.001750   0.000670   0.000692   0.000161
  129  H 16  S   -0.000700   0.000245  -0.000222   0.000034  -0.000348
  130  H 16  S    0.001073   0.000595   0.000419  -0.000127   0.001186
  131  H 17  S    0.000099  -0.000147  -0.000165   0.000055   0.000010
  132  H 17  S    0.004086  -0.000014   0.000902  -0.000527  -0.000114
  133  H 18  S    0.000447  -0.000452  -0.000180  -0.000232  -0.000058
  134  H 18  S   -0.000990  -0.000707  -0.000283   0.001304  -0.000387
  135  H 19  S   -0.000557   0.000365  -0.000041   0.000054   0.000026
  136  H 19  S    0.000161  -0.001252  -0.001297  -0.000421   0.000001
  137  H 20  S    0.000238  -0.000181  -0.000234   0.000048   0.000045
  138  H 20  S   -0.000325  -0.000913  -0.000773   0.000475   0.000479
  139  H 21  S    0.000089   0.000312   0.000150   0.000061   0.000010
  140  H 21  S   -0.000639   0.001770   0.001324   0.000578   0.000169
  141  H 22  S   -0.000311   0.000120  -0.000199   0.000057  -0.000025
  142  H 22  S    0.001155   0.000117   0.000427  -0.000101  -0.000149
  143  H 23  S   -0.000261  -0.000083  -0.000155   0.000024  -0.000009
  144  H 23  S    0.000393  -0.001162  -0.001555  -0.000351  -0.000181
  145  H 24  S    0.000330  -0.000106   0.000153  -0.000007  -0.000019
  146  H 24  S   -0.001206   0.000206  -0.000713   0.000492   0.001116

                      6          7          8          9         10
                  -11.2573   -11.2538   -11.2523   -11.2512   -11.2508
                     A          A          A          A          A   
    1  C  1  S    0.135266   0.002046   0.984956   0.055892  -0.004355
    2  C  1  S    0.002248   0.000055   0.025223   0.001685  -0.000116
    3  C  1  X    0.000000  -0.000000   0.000000  -0.000000   0.000000
    4  C  1  Y    0.000267   0.000000   0.000108   0.000076  -0.000019
    5  C  1  Z   -0.000104   0.000012   0.000523  -0.000022  -0.000008
    6  C  1  S    0.008712   0.000229  -0.022573  -0.008130  -0.000670
    7  C  1  X    0.000000  -0.000000   0.000000  -0.000000   0.000000
    8  C  1  Y   -0.001167  -0.000073   0.000340  -0.000166   0.000163
    9  C  1  Z    0.004104   0.000274  -0.006551  -0.003836  -0.000544
   10  C  2  S   -0.006983  -0.000604  -0.011643   0.000793  -0.000008
   11  C  2  S   -0.000301  -0.000132  -0.000400   0.000017   0.000029
   12  C  2  X    0.000000  -0.000000   0.000000  -0.000000   0.000000
   13  C  2  Y   -0.000036   0.000042   0.000079   0.000039  -0.000053
   14  C  2  Z   -0.000014  -0.000017  -0.000049   0.000015  -0.000020
   15  C  2  S    0.003450   0.003070   0.001772  -0.002623  -0.002595
   16  C  2  X    0.000000  -0.000000   0.000000  -0.000000   0.000000
   17  C  2  Y    0.000092   0.000147   0.000583  -0.001168   0.001427
   18  C  2  Z   -0.001682  -0.001368  -0.001727   0.001541   0.001861
   19  C  3  S   -0.062786  -0.000705   0.004749  -0.100497  -0.001148
   20  C  3  S   -0.001600  -0.000030  -0.000134  -0.003792  -0.000054
   21  C  3  X    0.000000  -0.000000   0.000000  -0.000000   0.000000
   22  C  3  Y    0.000096  -0.000027  -0.000060   0.000204   0.000004
   23  C  3  Z    0.000117   0.000006   0.000042   0.000211  -0.000011
   24  C  3  S   -0.002840  -0.000570   0.002636   0.015042   0.000810
   25  C  3  X    0.000000  -0.000000   0.000000  -0.000000   0.000000
   26  C  3  Y   -0.000501   0.000155  -0.000468  -0.001190   0.000013
   27  C  3  Z    0.001746   0.000391  -0.002251  -0.006199  -0.000609
   28  C  4  S    0.000176   0.000204   0.002945  -0.000794   0.000942
   29  C  4  S    0.000032   0.000008   0.000236  -0.000128  -0.000119
   30  C  4  X    0.000000  -0.000000   0.000000  -0.000000   0.000000
   31  C  4  Y    0.000045  -0.000047  -0.000013  -0.000045   0.000041
   32  C  4  Z    0.000005   0.000009   0.000047   0.000014   0.000015
   33  C  4  S   -0.002294  -0.001952  -0.002128   0.003717   0.003573
   34  C  4  X    0.000000  -0.000000   0.000000  -0.000000   0.000000
   35  C  4  Y   -0.001373   0.001235  -0.000765   0.000149  -0.000398
   36  C  4  Z   -0.001686  -0.001393  -0.002259   0.001708   0.001877
   37  C  5  S    0.982195  -0.000383  -0.131094  -0.087251   0.000246
   38  C  5  S    0.024782  -0.000027  -0.004428  -0.003395  -0.000003
   39  C  5  X    0.000000  -0.000000   0.000000  -0.000000   0.000000
   40  C  5  Y    0.000391  -0.000004  -0.000242  -0.000104   0.000015
   41  C  5  Z    0.000163  -0.000005  -0.000003  -0.000201  -0.000011
   42  C  5  S   -0.019708  -0.000159   0.012552   0.013011   0.000518
   43  C  5  X    0.000000  -0.000000   0.000000  -0.000000   0.000000
   44  C  5  Y   -0.004481  -0.000075   0.005834   0.004373   0.000237
   45  C  5  Z   -0.002543   0.000010   0.000941   0.004460   0.000017
   46  C  6  S   -0.002197  -0.000169  -0.016275   0.001957  -0.001099
   47  C  6  S   -0.000004  -0.000138  -0.000326   0.000014  -0.000346
   48  C  6  X    0.000000  -0.000000   0.000000  -0.000000   0.000000
   49  C  6  Y   -0.000011  -0.000156   0.000063  -0.000007  -0.000127
   50  C  6  Z   -0.000012   0.000037  -0.000111  -0.000004  -0.000020
   51  C  6  S   -0.000913   0.000513  -0.001115   0.001275   0.000369
   52  C  6  X    0.000000  -0.000000   0.000000  -0.000000   0.000000
   53  C  6  Y    0.001839   0.003664   0.003009  -0.001669  -0.002452
   54  C  6  Z   -0.000217   0.000115   0.001236   0.000671  -0.001442
   55  C  7  S    0.072498  -0.000423  -0.066715   0.985792   0.002094
   56  C  7  S    0.000866  -0.000025  -0.001452   0.025462   0.000045
   57  C  7  X    0.000000  -0.000000   0.000000  -0.000000   0.000000
   58  C  7  Y   -0.000025   0.000006  -0.000029   0.000364  -0.000018
   59  C  7  Z    0.000199   0.000009   0.000151  -0.000173  -0.000003
   60  C  7  S    0.007060   0.000382  -0.004349  -0.024451  -0.000439
   61  C  7  X    0.000000  -0.000000   0.000000  -0.000000   0.000000
   62  C  7  Y    0.002376   0.000187  -0.002240  -0.006429  -0.000197
   63  C  7  Z   -0.003604   0.000032   0.001434   0.003517   0.000052
   64  C  8  S   -0.002096  -0.000272  -0.016076   0.002163  -0.001027
   65  C  8  S   -0.000102  -0.000017  -0.000500   0.000089  -0.000101
   66  C  8  X    0.000000  -0.000000   0.000000  -0.000000   0.000000
   67  C  8  Y   -0.000001  -0.000073   0.000026  -0.000019  -0.000145
   68  C  8  Z    0.000007  -0.000041  -0.000123   0.000014  -0.000070
   69  C  8  S    0.001647  -0.002801   0.001787  -0.000892  -0.000037
   70  C  8  X    0.000000  -0.000000   0.000000  -0.000000   0.000000
   71  C  8  Y   -0.001849  -0.003346  -0.003947   0.001806   0.003913
   72  C  8  Z   -0.000553   0.001153   0.001346   0.000406  -0.000983
   73  C  9  S   -0.000700  -0.000675  -0.006507  -0.000471  -0.001290
   74  C  9  S   -0.000025   0.000012   0.000085   0.000204  -0.000093
   75  C  9  X    0.000000  -0.000000   0.000000  -0.000000   0.000000
   76  C  9  Y    0.000128   0.000016   0.000033  -0.000000  -0.000012
   77  C  9  Z    0.000056   0.000011   0.000128   0.000035   0.000003
   78  C  9  S   -0.000626  -0.000690  -0.005516  -0.004763   0.001629
   79  C  9  X    0.000000  -0.000000   0.000000  -0.000000   0.000000
   80  C  9  Y   -0.003348  -0.001245   0.000762   0.004857   0.002124
   81  C  9  Z    0.000493  -0.000315   0.002782  -0.000892   0.000694
   82  C 10  S   -0.000361  -0.000933  -0.005649   0.000144  -0.002017
   83  C 10  S   -0.000101  -0.000074  -0.001293  -0.000188  -0.000011
   84  C 10  X    0.000000  -0.000000   0.000000  -0.000000   0.000000
   85  C 10  Y    0.000081  -0.000007   0.000242   0.000154  -0.000008
   86  C 10  Z   -0.000023   0.000021   0.000069  -0.000022   0.000000
   87  C 10  S   -0.001605   0.001469   0.012041   0.002194  -0.001233
   88  C 10  X    0.000000  -0.000000   0.000000  -0.000000   0.000000
   89  C 10  Y    0.003069   0.001312  -0.003995  -0.004835  -0.001795
   90  C 10  Z    0.001497  -0.000658   0.001943   0.000020   0.000566
   91  C 11  S    0.000037   0.153374   0.001992  -0.001379   0.908126
   92  C 11  S   -0.000022   0.002812  -0.000057  -0.000028   0.022894
   93  C 11  X    0.000000  -0.000000   0.000000  -0.000000   0.000000
   94  C 11  Y   -0.000012  -0.000022  -0.000030   0.000014  -0.000371
   95  C 11  Z    0.000014   0.000172   0.000035  -0.000006  -0.000209
   96  C 11  S    0.000542   0.006581   0.001004  -0.000373  -0.018216
   97  C 11  X    0.000000  -0.000000   0.000000  -0.000000   0.000000
   98  C 11  Y   -0.000275  -0.002516  -0.000488   0.000192   0.003820
   99  C 11  Z   -0.000085  -0.003593  -0.000793   0.000098   0.003121
  100  C 12  S    0.000044   0.982281  -0.002864   0.000494  -0.149658
  101  C 12  S    0.000009   0.024730   0.000073  -0.000024  -0.004748
  102  C 12  X    0.000000  -0.000000   0.000000  -0.000000   0.000000
  103  C 12  Y    0.000007  -0.000375  -0.000007  -0.000006   0.000105
  104  C 12  Z   -0.000002   0.000209   0.000013  -0.000009  -0.000267
  105  C 12  S   -0.000388  -0.020145  -0.001268   0.000613   0.010962
  106  C 12  X    0.000000  -0.000000   0.000000  -0.000000   0.000000
  107  C 12  Y    0.000172   0.004811   0.000630  -0.000312  -0.003263
  108  C 12  Z   -0.000085  -0.002524  -0.000713   0.000051   0.003773
  109  C 13  S    0.000243   0.021257   0.005858  -0.001556   0.380663
  110  C 13  S    0.000025   0.000474   0.000229  -0.000060   0.008506
  111  C 13  X    0.000000  -0.000000   0.000000  -0.000000   0.000000
  112  C 13  Y    0.000029  -0.000139  -0.000003   0.000009  -0.000276
  113  C 13  Z    0.000008   0.000093   0.000027  -0.000011  -0.000069
[...]
   13             0.282688   0.047134   0.078211   0.100408   0.190892
   14             0.283553   0.082118   0.068037   0.092474   0.174225
   15             0.140592   0.034094   0.000000   0.000722   0.000000
   16             0.030900   0.028152   0.000000   0.000236   0.000000
   17             0.083821   0.119875   0.000000   0.005424   0.000000
   18             0.112358   0.071193   0.000000   0.001881   0.000000
   19             0.132205   0.017022   0.000000   0.000218   0.000000
   20             0.018189   0.038008   0.000000   0.000468   0.000000
   21             0.003080   0.047036   0.000000   0.102736   0.000000
   22             0.000126   0.033495   0.000000   0.127627   0.000000
   23             0.037402   0.030122   0.000000   0.117073   0.000000
   24             0.003404   0.050548   0.000000   0.118772   0.000000

                     41         42         43         44         45

                  2.000000   2.000000   2.000000   2.000000   2.000000

    1             0.147092   0.112500   0.050382   0.104926   0.487265
    2             0.021605   0.132732   0.103236   0.169937  -0.000751
    3             0.137606   0.108332   0.048639   0.039117   0.539083
    4             0.022211   0.149412   0.123886   0.070249   0.020606
    5             0.154092   0.087226   0.028432   0.330314   0.140640
    6             0.056761   0.147123   0.229308   0.080440   0.005303
    7             0.153339   0.083597   0.028751   0.266769   0.205085
    8             0.055262   0.155695   0.219316   0.035734   0.040436
    9             0.147923   0.125812   0.137845   0.133930   0.085113
   10             0.144422   0.136174   0.133867   0.053059   0.133633
   11             0.120368   0.116941   0.077394   0.266283   0.074567
   12             0.121034   0.123073   0.076816   0.291288   0.021364
   13             0.092365   0.138438   0.109719   0.059125   0.140117
   14             0.105893   0.144017   0.114586   0.098831   0.107538
   15             0.079472   0.000210   0.092006   0.000000   0.000000
   16             0.107658   0.000491   0.037998   0.000000   0.000000
   17             0.004928  -0.000015   0.107696   0.000000   0.000000
   18             0.003944   0.000003   0.094567   0.000000   0.000000
   19             0.074142   0.000743   0.090339   0.000000   0.000000
   20             0.115370   0.000171   0.039537   0.000000   0.000000
   21             0.029968   0.069142   0.020044   0.000000   0.000000
   22             0.041465   0.050551   0.007618   0.000000   0.000000
   23             0.029039   0.066784   0.020535   0.000000   0.000000
   24             0.034041   0.050847   0.007483   0.000000   0.000000

                     46         47         48

                  2.000000   1.926140   0.073860

    1             0.123486   0.014976   0.000346
    2             0.000844   0.545678   0.023618
    3             0.115252   0.019739   0.000430
    4             0.001612   0.750875   0.030337
    5             0.043305   0.038572   0.001190
    6             0.141199   0.070771   0.002559
    7             0.024479   0.021114   0.000640
    8             0.131573   0.139665   0.005148
    9             0.050820   0.079119   0.002341
   10             0.030180   0.156149   0.004531
   11             0.139069   0.019242   0.000688
   12             0.174260   0.035038   0.001319
   13             0.502448   0.018647   0.000438
   14             0.521473   0.016556   0.000276
   15             0.000000   0.000000   0.000000
   16             0.000000   0.000000   0.000000
   17             0.000000   0.000000   0.000000
   18             0.000000   0.000000   0.000000
   19             0.000000   0.000000   0.000000
   20             0.000000   0.000000   0.000000
   21             0.000000   0.000000   0.000000
   22             0.000000   0.000000   0.000000
   23             0.000000   0.000000   0.000000
   24             0.000000   0.000000   0.000000
 WARNING! MCSCF POPULATIONS SHOWN ABOVE ARE FOR THE NATURAL ORBITALS.
 IGNORE THE ABOVE DATA FOR MCSCF FUNCTIONS WHICH ARE NOT OF -FORS- TYPE.
 THE FOLLOWING POPULATIONS ARE CORRECT FOR ANY MCSCF WAVEFUNCTION.

               ----- POPULATIONS IN EACH AO -----
                             MULLIKEN      LOWDIN
              1  C  1  S      1.99743     1.98857
              2  C  1  S      0.69880     0.54896
              3  C  1  X      0.52536     0.49031
              4  C  1  Y      0.73859     0.68923
              5  C  1  Z      0.74153     0.67579
              6  C  1  S      0.39101     0.39418
              7  C  1  X      0.46299     0.50249
              8  C  1  Y      0.19014     0.36464
              9  C  1  Z      0.34965     0.44294
             10  C  2  S      1.99849     1.98850
             11  C  2  S      0.69599     0.54853
             12  C  2  X      0.51779     0.48672
             13  C  2  Y      0.72848     0.67827
             14  C  2  Z      0.73058     0.66853
             15  C  2  S      0.11729     0.38420
             16  C  2  X      0.42708     0.46974
             17  C  2  Y      0.19837     0.35477
             18  C  2  Z      0.10782     0.43335
             19  C  3  S      1.99821     1.98874
             20  C  3  S      0.69932     0.54837
             21  C  3  X      0.52727     0.49267
             22  C  3  Y      0.73425     0.68361
             23  C  3  Z      0.73875     0.67428
             24  C  3  S      0.42514     0.40250
             25  C  3  X      0.46471     0.50299
             26  C  3  Y      0.15039     0.35428
             27  C  3  Z      0.37011     0.43434
             28  C  4  S      1.99463     1.98765
             29  C  4  S      0.67772     0.54822
             30  C  4  X      0.54462     0.51202
             31  C  4  Y      0.72796     0.67884
             32  C  4  Z      0.73608     0.67585
             33  C  4  S      1.04042     0.40772
             34  C  4  X      0.43335     0.47606
             35  C  4  Y      0.19564     0.36218
             36  C  4  Z      0.87573     0.45279
             37  C  5  S      1.99777     1.98920
             38  C  5  S      0.70278     0.55198
             39  C  5  X      0.50673     0.47037
             40  C  5  Y      0.75522     0.69139
             41  C  5  Z      0.74703     0.69109
             42  C  5  S      0.49130     0.40088
             43  C  5  X      0.46204     0.49950
             44  C  5  Y      0.33710     0.41689
             45  C  5  Z      0.20667     0.38929
             46  C  6  S      1.82917     1.82906
             47  C  6  S      0.74876     0.57365
             48  C  6  X      0.62589     0.57111
             49  C  6  Y      0.83338     0.77757
             50  C  6  Z      0.80316     0.73590
             51  C  6  S      0.62697     0.36192
             52  C  6  X      0.44797     0.49192
             53  C  6  Y      0.23642     0.37841
             54  C  6  Z      0.35851     0.38315
             55  C  7  S      1.99775     1.98912
             56  C  7  S      0.70138     0.55408
             57  C  7  X      0.50831     0.47264
             58  C  7  Y      0.76072     0.69483
             59  C  7  Z      0.74354     0.68889
             60  C  7  S      0.49020     0.39995
             61  C  7  X      0.46727     0.50414
             62  C  7  Y      0.32319     0.41768
             63  C  7  Z      0.21077     0.39116
             64  C  8  S      1.88015     1.85972
             65  C  8  S      0.78897     0.57312
             66  C  8  X      0.59952     0.54673
             67  C  8  Y      0.82945     0.77695
             68  C  8  Z      0.78672     0.71712
             69  C  8  S      0.02174     0.36240
             70  C  8  X      0.44219     0.48475
             71  C  8  Y     -0.06792     0.38107
             72  C  8  Z     -0.16508     0.36490
             73  C  9  S      1.78947     1.80030
             74  C  9  S      0.74922     0.58573
             75  C  9  X      0.65302     0.59590
             76  C  9  Y      0.84874     0.77374
             77  C  9  Z      0.81742     0.74989
             78  C  9  S      1.05587     0.36725
             79  C  9  X      0.45200     0.49543
             80  C  9  Y      0.21816     0.36129
             81  C  9  Z      0.17040     0.35891
             82  C 10  S      1.89846     1.87128
             83  C 10  S      0.77940     0.56515
             84  C 10  X      0.59316     0.54199
             85  C 10  Y      0.82374     0.75405
             86  C 10  Z      0.77552     0.71943
             87  C 10  S     -0.21216     0.36521
             88  C 10  X      0.44478     0.48670
             89  C 10  Y      0.27732     0.37462
             90  C 10  Z     -0.05652     0.35828
             91  C 11  S      1.99773     1.98915
             92  C 11  S      0.70533     0.55239
             93  C 11  X      0.50340     0.46716
             94  C 11  Y      0.75753     0.69495
             95  C 11  Z      0.74748     0.69067
             96  C 11  S      0.48820     0.39898
             97  C 11  X      0.46067     0.49826
             98  C 11  Y      0.23548     0.42074
             99  C 11  Z      0.16048     0.39141
            100  C 12  S      1.99776     1.98918
            101  C 12  S      0.71751     0.55786
            102  C 12  X      0.49676     0.46002
            103  C 12  Y      0.75687     0.69287
            104  C 12  Z      0.74480     0.68872
            105  C 12  S      0.53272     0.40275
            106  C 12  X      0.45060     0.49099
            107  C 12  Y      0.36223     0.41833
            108  C 12  Z      0.15390     0.38793
            109  C 13  S      1.99708     1.98866
            110  C 13  S      0.68847     0.54665
            111  C 13  X      0.52770     0.49316
            112  C 13  Y      0.73112     0.68264
            113  C 13  Z      0.73667     0.66938
            114  C 13  S      0.78592     0.41163
            115  C 13  X      0.46723     0.50479
            116  C 13  Y      0.45262     0.39758
            117  C 13  Z      0.51149     0.43465
            118  C 14  S      1.99880     1.98875
            119  C 14  S      0.71123     0.55014
            120  C 14  X      0.52133     0.48723
            121  C 14  Y      0.73106     0.68118
            122  C 14  Z      0.74330     0.67813
            123  C 14  S      0.40163     0.45227
            124  C 14  X      0.46626     0.50424
            125  C 14  Y      0.10189     0.37185
            126  C 14  Z      0.10788     0.43420
            127  H 15  S      0.53342     0.51496
            128  H 15  S      0.30010     0.37115
            129  H 16  S      0.53553     0.51382
            130  H 16  S      0.23058     0.35382
            131  H 17  S      0.52698     0.50563
            132  H 17  S      0.32312     0.37251
            133  H 18  S      0.53100     0.51500
            134  H 18  S      0.21409     0.35234
            135  H 19  S      0.53293     0.51184
            136  H 19  S      0.27026     0.36398
            137  H 20  S      0.53126     0.51106
            138  H 20  S      0.23763     0.35283
            139  H 21  S      0.53132     0.51163
            140  H 21  S      0.28921     0.36072
            141  H 22  S      0.53248     0.51135
            142  H 22  S      0.25470     0.35927
            143  H 23  S      0.53194     0.51172
            144  H 23  S      0.29387     0.36678
            145  H 24  S      0.53518     0.51364
            146  H 24  S      0.24780     0.35597

          ----- MULLIKEN ATOMIC OVERLAP POPULATIONS -----
          (OFF-DIAGONAL ELEMENTS NEED TO BE MULTIPLIED BY 2)

             1           2           3           4           5

    1    7.9339938
    2    0.1294274  25.5919561
    3    0.3239031   0.3145843   5.4653804
    4   -0.6889343 -14.5117423  -0.3528217  77.6048040
    5   -1.1053893  -0.0534712  -0.2707738   0.2731522   5.9879562
    6   -0.0608123 -20.0314148  -0.1839813  29.4837600   0.0287572
    7   -0.0821716   0.0168205   0.4228187  -0.0257554   0.4529507
    8    0.1176712  18.7849282   0.1579032 -54.2444366  -0.0673222
    9   -1.1514584 -10.1056968  -0.7164657  14.3339238   0.4920604
   10    0.4224619  11.0541458   0.6398952 -36.9792766   0.0553450
   11   -0.0000243   0.5414515   0.0000497  -0.6815627  -0.0000020
   12    0.0001083  -0.4840604  -0.0000504   1.5288522   0.0000050
   13   -0.0001028  -9.0536937  -0.0033506   4.3071119   0.0001855
   14   -0.0049095   2.4547203   0.0017165 -15.9120968  -0.0006077
   15   -0.0003831   0.0191426   0.0000139  -0.3833961  -0.0000182
   16    0.0023995   0.0009046   0.3297911  -0.0026223   0.0005129
   17   -0.0464790  -0.2359693  -0.0075760   3.6637771   0.0381664
   18    0.0021992   1.2950881  -0.0172959  -0.2177262  -0.0011475
   19   -0.0000018  -0.2126340   0.0000877   0.0294163   0.0000012
   20    0.3984995   0.0011256   0.0018900  -0.0115870  -0.0343319
   21   -0.0000000   0.0081705   0.0000000  -0.0033553  -0.0000000
   22   -0.1190782  -0.0002907  -0.0077190   0.0016779   0.4355747
   23    0.0000005  -0.0021989  -0.0000001   0.0157932   0.0000000
   24    0.0245837   0.0005972   0.0101475  -0.0007957  -0.0249607

             6           7           8           9          10

    6   60.2850392
    7   -0.0077258   5.2221866
    8  -37.6129638   0.0079145  83.5243875
    9   10.9976175  -0.0935705 -11.1440242  19.4548905
   10  -15.8528353   0.0275440  27.3483836 -15.6929125  35.3823807
   11    5.8800727   0.0000007  -5.3176189  -0.0343139   0.0634109
   12   -5.7434858  -0.0000008  10.6239109   0.0382832  -0.1271637
   13  -19.6612392  -0.0001010  -1.7634434   1.0307617  -1.0547406
   14    0.0924750   0.0000528 -21.2463324  -0.5399386   2.4944947
   15   -0.0523346   0.0000006  -1.6019163  -0.0062421   0.0678630
   16   -0.0074443  -0.0277184   0.0017181  -0.0358469   0.0112158
   17    0.8483794  -0.0010125  -3.2481711   0.4250275  -2.8058237
   18   -0.7191416  -0.0000751   0.4465203  -0.5091709   0.2763019
   19   -1.4493369  -0.0000014  -0.0373349   0.0177457  -0.0091287
   20   -0.0015789   0.0023957   0.0101918  -0.0092827  -0.0151698
   21    0.3802420   0.0000000  -0.1014571  -0.0001792   0.0001986
   22    0.0000938  -0.0126862  -0.0002829   0.0067667   0.0201222
   23   -0.1016340  -0.0000000   0.4773791   0.0001046  -0.0005989
   24   -0.0002685   0.3012701   0.0001349  -0.0037875  -0.0024176

            11          12          13          14          15

   11   14.8367427
   12  -10.6946218  21.0957411
   13   -8.4016188   8.4323051  44.1819353
   14   10.1102497 -18.4642628 -12.0076526  58.5935847
   15    0.2223906  -0.5897398  -0.1105479   2.6482752   0.9763000
   16    0.0000018  -0.0000007  -0.0004450   0.0000113   0.0000000
   17   -0.0186055   0.0891353   0.0593684  -1.7565242  -0.2488353
   18    0.0165599  -0.0100900  -0.8501989   0.0300841   0.0000960
   19   -0.0716282   0.1918156   1.8271741  -0.1130840  -0.0004207
   20    0.0000007  -0.0000041  -0.0000130   0.0004253   0.0000497
   21    0.4905928  -0.8005710  -0.1725815   0.2121407   0.0026170
   22   -0.0000000   0.0000000   0.0000002  -0.0000013  -0.0000001
   23   -0.8852213   1.1270399   0.1391969  -0.8094414  -0.1093967
   24    0.0000000  -0.0000000  -0.0000018   0.0000002   0.0000000

            16          17          18          19          20

   16    0.4737764
   17   -0.0000143   4.1071927
   18    0.0163420  -0.0012287   1.0746044
   19   -0.0000335   0.0001648  -0.0876789   0.7918312
   20    0.0000116  -0.0133589   0.0000087  -0.0000000   0.4411319
   21    0.0000000  -0.0000500   0.0008200  -0.0762350   0.0000000
   22   -0.0001542   0.0004649  -0.0000062   0.0000000  -0.0014907
   23   -0.0000000   0.0020955  -0.0000276   0.0024694  -0.0000000
   24    0.0037010  -0.0000160   0.0002552  -0.0000000  -0.0000214

            21          22          23          24

   21    0.9713591
   22   -0.0000000   0.4696995
   23   -0.0911761   0.0000000   1.0614236
   24    0.0000000  -0.0055041  -0.0000000   0.4800637

          TOTAL MULLIKEN AND LOWDIN ATOMIC POPULATIONS
       ATOM         MULL.POP.    CHARGE          LOW.POP.     CHARGE
    1 C             6.095503   -0.095503         6.097099   -0.097099
    2 C             5.521891    0.478109         6.012616   -0.012616
    3 C             6.108147   -0.108147         6.081788   -0.081788
    4 C             7.226160   -1.226160         6.101336   -0.101336
    5 C             6.206643   -0.206643         6.100597   -0.100597
    6 C             6.510240   -0.510240         6.102682   -0.102682
    7 C             6.203136   -0.203136         6.112475   -0.112475
    8 C             5.115740    0.884260         6.066764   -0.066764
    9 C             6.754292   -0.754292         6.088442   -0.088442
   10 C             5.323696    0.676304         6.036720   -0.036720
   11 C             6.056306   -0.056306         6.103707   -0.103707
   12 C             6.213145   -0.213145         6.088651   -0.088651
   13 C             6.898308   -0.898308         6.129143   -0.129143
   14 C             5.783380    0.216620         6.147981   -0.147981
   15 H             0.833518    0.166482         0.886103    0.113897
   16 H             0.766106    0.233894         0.867641    0.132359
   17 H             0.850107    0.149893         0.878134    0.121866
   18 H             0.745092    0.254908         0.867339    0.132661
   19 H             0.803188    0.196812         0.875818    0.124182
   20 H             0.768892    0.231108         0.863894    0.136106
   21 H             0.820535    0.179465         0.872349    0.127651
   22 H             0.787187    0.212813         0.870617    0.129383
   23 H             0.825808    0.174192         0.878494    0.121506
   24 H             0.782980    0.217020         0.869610    0.130390

          ---------------------
          ELECTROSTATIC MOMENTS
          ---------------------

 POINT   1           X           Y           Z (BOHR)    CHARGE
                 0.000000   -0.000000    0.000000       -0.00 (A.U.)
         DX          DY          DZ         /D/  (DEBYE)
     0.000000   -1.299581    0.858669    1.557634
 ...... END OF PROPERTY EVALUATION ......
 STEP CPU TIME =     0.03 TOTAL CPU TIME =        110.6 (      1.8 MIN)
 TOTAL WALL CLOCK TIME=        110.7 SECONDS, CPU UTILIZATION IS    99.93%
               937334  WORDS OF DYNAMIC MEMORY USED
 EXECUTION OF GAMESS TERMINATED NORMALLY 18:06:11 12-MAY-2024    
 DDI: 263640 bytes (0.3 MB / 0 MWords) used by master data server.

 ----------------------------------------
 CPU timing information for all processes
 ========================================
 0: 88.581 + 22.45 = 110.627
 ----------------------------------------
 ddikick.x: exited gracefully.
----- accounting info -----
Files used on the master node brusel were:
-rw-r--r-- 1 humbel users    116005 May 12 18:04 /scratch/humbel.257452/proj_modif.F05
-rw-r--r-- 1 humbel users 214759088 May 12 18:04 /scratch/humbel.257452/proj_modif.F08
-rw-r--r-- 1 humbel users    265872 May 12 18:06 /scratch/humbel.257452/proj_modif.F09
-rw-r--r-- 1 humbel users   4155440 May 12 18:06 /scratch/humbel.257452/proj_modif.F10
-rw-r--r-- 1 humbel users    275200 May 12 18:04 /scratch/humbel.257452/proj_modif.F11
-rw-r--r-- 1 humbel users       248 May 12 18:06 /scratch/humbel.257452/proj_modif.F12
-rw-r--r-- 1 humbel users    180352 May 12 18:06 /scratch/humbel.257452/proj_modif.F13
-rw-r--r-- 1 humbel users    400008 May 12 18:06 /scratch/humbel.257452/proj_modif.F14
-rw-r--r-- 1 humbel users    189432 May 12 18:06 /scratch/humbel.257452/proj_modif.F15
-rw-r--r-- 1 humbel users    189432 May 12 18:06 /scratch/humbel.257452/proj_modif.F16
-rw-r--r-- 1 humbel users         0 May 12 18:04 /scratch/humbel.257452/proj_modif.F23
Sun May 12 06:06:14 PM CEST 2024
0.0u 0.1s 1:54.00 0.1% 0+0k 488+664io 5pf+0w
