----- GAMESS execution script 'rungms' -----
This job is running on host brusel
under operating system Linux at Sun May 12 06:49:08 PM CEST 2024
Available scratch disk space (Kbyte units) at beginning of the job is
Filesystem                    1K-blocks      Used Available Use% Mounted on
/dev/mapper/vg--ctom-scratch 1049894020 215747144 834146876  21% /scratch
GAMESS temporary binary files will be written to /scratch/humbel.257465
GAMESS supplementary output files will be written to /home/humbel/di-barrois/di-antracene/di-proj
Copying input file ./proj_xm.inp to your run's scratch directory...

 Distributed Data Interface kickoff program.
 Initiating 1 compute processes on 1 nodes to run the following command:
 /home/humbel/fuming/softwares/gamess/2020-R2/gamess.xmvb.x proj_xm 

          *******************************************************
          *                                                     *
          *          GAMESS VERSION = 30 SEP 2020 (R2)          *
          *                                                     *
          *              doi.org/10.1063/5.0005188              *
          *                                                     *
          **************** 64 BIT LINUX VERSION *****************

  GAMESS HAS BEEN MADE POSSIBLE WITH IMPORTANT CONTRIBUTIONS FROM
  THE FOLLOWING INDIVIDUALS (IN ALPHABETICAL ORDER):

     IVANA ADAMOVIC, CHRISTINE AIKENS, TOMOKO AKAMA,
     YURI ALEXEEV, YURIKO AOKI, POOJA ARORA, TOSHIO ASADA,
     ANDREY ASADCHEV, KIM K. BALDRIDGE, PRADIPTA BANDYOPADHYAY,
     MARIA BARYSZ, ROB BELL, JONATHAN BENTZ, COLLEEN BERTONI,
     JERRY A. BOATZ, BRETT BODE, KURT BRORSEN, KURT R. BRORSEN,
     LAIMUTIS BYTAUTAS, CALEB CARLIN, LAURA CARRINGTON,
     GALINA CHABAN, BENOIT CHAMPAGNE, WEI CHEN, MAHITO CHIBA,
     DAN CHIPMAN, CHEOL HO CHOI, TANNER CULPITT,
     DIPAYAN DATTA, PAUL DAY, ALBERT DEFUSCO,
     NUWAN DESILVA, J. EMILIANO DEUSTUA,
     TIM DUDLEY, MICHEL DUPUIS, STEVEN T. ELBERT,
     DMITRI FEDOROV, ALEX FINDLATER, GRAHAM FLETCHER,
     MARK FREITAG, CHRISTIAN FRIEDL, DAVID GARMER,
     IGOR S. GERASIMOV, KURT GLAESEMANN, MARK S. GORDON,
     JEFFREY GOUR, FENG LONG GU, EMILIE B. GUIDEZ,
     ANASTASIA GUNINA, SHARON HAMMES-SCHIFFER, MASATAKE HARUTA,
     KIMIHIKO HIRAO, YASUHIRO IKABATA, TZVETELIN IORDANOV,
     STEPHAN IRLE, KAZUYA ISHIMURA, JOE IVANIC, FRANK JENSEN,
     JAN H. JENSEN, VISVALDAS KAIRYS, MUNEAKI KAMIYA,
     MICHIO KATOUDA, NAOAKI KAWAKAMI, DAN KEMP, BERNARD KIRTMAN,
     KAZUO KITAURA, MARIUSZ KLOBUKOWSKI, MASATO KOBAYASHI,
     PRAKASHAN KORAMBATH, JACEK KORCHOWIEC, SHIRO KOSEKI,
     KAROL KOWALSKI, JIMMY KROMANN, STANISLAW KUCHARSKI,
     HENRY KURTZ, SAROM SOK LEANG, HUI LI, SHUHUA LI, WEI LI,
     JESSE LUTZ, ALEKSANDR O. LYKHIN, MARCIN MAKOWSKI,
     JOANI MATO, NIKITA MATSUNAGA, BENEDETTA MENNUCCI,
     GRANT MERRILL, NORIYUKI MINEZAWA, VLADIMIR MIRONOV,
     EISAKU MIYOSHI, JOHN A. MONTGOMERY JR., HIROTOSHI MORI,
     JONATHAN MULLIN, MONIKA MUSIAL, SHIGERU NAGASE,
     TAKESHI NAGATA, HIROMI NAKAI, TAKAHITO NAKAJIMA,
     YUYA NAKAJIMA, HARUYUKI NAKANO, HIROYA NAKATA, SEAN NEDD,
     HEATHER NETZLOFF, KIET A. NGUYEN, YOSHIO NISHIMOTO,
     BOSILJKA NJEGIC, RYAN OLSON, MIKE PAK, ROBERTO PEVERATI,
     BUU PHAM, PIOTR PIECUCH, ANNA POMOGAEVA, DAVID POOLE,
     SPENCER PRUITT, OLIVIER QUINET, LUKE ROSKOP,
     KLAUS RUEDENBERG, ANDREW SAND, TOSAPORN SATTASATHUCHANA,
     NOZOMI SAWADA, MICHAEL W. SCHMIDT, PATRICK E. SCHNEIDER,
     JUNJI SEINO, PRACHI SHARMA, JUN SHEN, JIM SHOEMAKER,
     YINAN SHU, DEJUN SI, JONATHAN SKONE, LYUDMILA SLIPCHENKO,
     TONY SMITH, JIE SONG, MARK SPACKMAN, CASPER STEINMANN,
     WALT STEVENS, PEIFENG SU, SHUJUN SU, CHET SWALINA,
     TETSUYA TAKETSUGU, ZHEN TAO, NANDUN THELLAMUREGE
     SEIKEN TOKURA, JACOPO TOMASI, TSUGUKI TOUMA, TAKAO TSUNEDA,
     HIROAKI UMEDA, JORGE LUIS GALVEZ VALLEJO, YALI WANG,
     SIMON WEBB, AARON WEST, THERESA L. WINDUS, MARTA WLOCH,
     PENG XU, KIYOSHI YAGI, SUSUMU YANAGISAWA, YANG YANG,
     SOOHAENG YOO, TAKESHI YOSHIKAWA, FEDERICO ZAHARIEV,
     TOBY ZENG

  WHO ARE SUPPORTED BY THEIR INSTITUTION/UNIVERSITY/COMPANY/GROUP
  (IN ALPHABETICAL ORDER):

     EP ANALYTICS, FACULTES UNIVERSITAIRES NOTRE-DAME DE LA PAIX,
     INSTITUTE FOR MOLECULAR SCIENCE, IOWA STATE UNIVERSITY,
     JACKSON STATE UNIVERSITY, JOHANNES KEPLER UNIVERSITY LINZ,
     KYUSHU UNIVERSITY, MICHIGAN STATE UNIVERSITY,
     MIE UNIVERSITY, MOSCOW STATE UNIVERSITY,
     N. COPERNICUS UNIVERSITY, NAGOYA UNIVERSITY,
     NANJING UNIVERSITY, NAT. INST. OF ADVANCED INDUSTRIAL
     SCIENCE AND TECHNOLOGY, NATIONAL INST. OF STANDARDS AND
     TECHNOLOGY, NESMEYANOV INSTITUTE OF ORGANOELEMENT COMPOUNDS
     OF RUSSIAN ACADEMY OF SCIENCES, OSAKA PREFECTURE UNIVERSITY,
     PENNSYLVANIA STATE UNIVERSITY, TOKYO INSTITUTE OF TECHNOLOGY,
     UNIVERSITY OF AARHUS, UNIVERSITY OF ALBERTA,
     UNIVERSITY OF CALIFORNIA AT SANTA BARBARA,
     UNIVERSITY OF COPENHAGEN, UNIVERSITY OF IOWA,
     UNIVERSITY OF MEMPHIS, UNIVERSITY OF MINNESOTA,
     UNIVERSITY OF NEBRASKA, UNIVERSITY OF NEW ENGLAND,
     UNIVERSITY OF NOTRE DAME, UNIVERSITY OF PISA,
     UNIVERSITY OF SILESIA, UNIVERSITY OF TOKYO,
     UNIVERSITY OF ZURICH, WASEDA UNIVERSITY, YALE UNIVERSITY

  GAMESS SOFTWARE MANAGEMENT TEAM FOR THIS RELEASE:
     MARK S. GORDON (TEAM LEAD),
     BRETT BODE (SENIOR ADVISOR),
     GIUSEPPE BARCA,
     COLLEEN BERTONI,
     KRISTOPHER KEIPERT (ADVISOR),
     SAROM S. LEANG (DEVELOPMENT LEAD),
     BUU PHAM,
     JORGE LUIS GALVEZ VALLEJO (WEBSITE ADMINISTRATOR),
     PENG XU

 EXECUTION OF GAMESS BEGUN 18:49:08 12-MAY-2024    

            ECHO OF THE FIRST FEW INPUT CARDS -
 INPUT CARD>!   File created by MacMolPlt 7.7.2                                             
 INPUT CARD> $CONTRL SCFTYP=RHF RUNTYP=ENERGY                  $END                         
 INPUT CARD>! $CONTRL SCFTYP=MCSCF RUNTYP=ENERGY MAXIT=0 MULT=1 $END                        
 INPUT CARD>! $CONTRL   SCFTYP=MCSCF RUNTYP=ENERGY  $END                                    
 INPUT CARD> $CONTRL   MAXIT=100  MULT=1  $END                                              
 INPUT CARD>! $CONTRL   VBTYP=NONE  $END                                                    
 INPUT CARD> $CONTRL  VBTYP=XMVB  $END                                                      
 INPUT CARD> $CONTRL  COORD=UNIQUE                 $END                                     
 INPUT CARD> $MCSCF CISTEP=GUGA $END                                                        
 INPUT CARD> $DRT    GROUP=C1  FORS=.TRUE. NMCC=46 NDOC=1 NVAL=1 $END                       
 INPUT CARD> $GUGDIA NSTATE=2 $END                                                          
 INPUT CARD> $GUGDM2 WSTATE(1)=1.0,0.0 $END                                                 
 INPUT CARD> $SYSTEM TIMLIM=525600 MEMORY=1000000 $END                                      
 INPUT CARD> $BASIS GBASIS=N31 NGAUSS=6 $END                                                
 INPUT CARD> $GUESS GUESS=MOREAD                                                            
 INPUT CARD> NORB=48                                                                        
 INPUT CARD> $END                                                                           
 INPUT CARD> $MOFRZ FRZ=.T.                                                                 
 INPUT CARD> IFRZ(1)=1,2,3,4,5,6,7,8,9,10,11,12,13,14,15,16,17,18,19,20,21,22,23            
 INPUT CARD> IFRZ(24)=24,25,26,27,28,29,30,31,32,33,34,35,36,37,38,39,40                    
 INPUT CARD> IFRZ(41)=41,42,43,44,45,46,47                                                  
 INPUT CARD> $END                                                                           
 INPUT CARD>! $DET                                                                          
 INPUT CARD>! PRTTOL=0.  NCORE=46  NACT=2 NELS=2 ISTSYM=1                                   
 INPUT CARD>!! PRTTOL=0.  NCORE=7  NACT=2 NELS=2 ISTSYM=6                                   
 INPUT CARD>!!                                 D2h Ag B1g B2g B3g Au B1u B2u B3u            
 INPUT CARD>!                              ISTSYM  1  2   3   4   5   6   7   8             
 INPUT CARD>! NSTATE=2                                                                      
 INPUT CARD>! WSTATE(1)=1.0,0.0                                                             
 INPUT CARD>! PURES=.true. SZ=0                                                             
 INPUT CARD>! $END                                                                          
 INPUT CARD> $SCF DIRSCF=.TRUE.  CONV=0 $END                                                
 INPUT CARD> $DATA                                                                          
 INPUT CARD>anthracene opt C2H gaussian                                                     
 INPUT CARD>C1                                                                              
 INPUT CARD>C  6.0     0.00000    -2.47682     -1.40470                                     
 INPUT CARD>C  6.0    -0.00000    -0.00000      1.40119                                     
 INPUT CARD>C  6.0     0.00000    -2.47682      1.40470                                     
 INPUT CARD>C  6.0     0.00000     0.00000     -1.40119                                     
 INPUT CARD>C  6.0     0.00000    -3.65503     -0.71227                                     
 INPUT CARD>C  6.0    -0.00000     1.22202      0.72155                                     
 INPUT CARD>C  6.0     0.00000    -3.65503      0.71227                                     
 INPUT CARD>C  6.0    -0.00000     1.22202     -0.72155                                     
 INPUT CARD>C  6.0    -0.00000    -1.22202      0.72155                                     
 INPUT CARD>C  6.0     0.00000    -1.22202     -0.72155                                     
 INPUT CARD>C  6.0    -0.00000     3.65503      0.71227                                     
 INPUT CARD>C  6.0     0.00000     3.65503     -0.71227                                     
 INPUT CARD>C  6.0    -0.00000     2.47682      1.40470                                     
 INPUT CARD>C  6.0     0.00000     2.47682     -1.40470                                     
 INPUT CARD>H  1.0     0.00000     2.47711     -2.49085                                     
    1000000 WORDS OF MEMORY AVAILABLE

     BASIS OPTIONS
     -------------
     GBASIS=N31          IGAUSS=       6      POLAR=NONE    
     NDFUNC=       0     NFFUNC=       0     DIFFSP=       F
     NPFUNC=       0      DIFFS=       F     BASNAM=        


     RUN TITLE
     ---------
 anthracene opt C2H gaussian                                                     

 THE POINT GROUP OF THE MOLECULE IS C1      
 THE ORDER OF THE PRINCIPAL AXIS IS     0

 ATOM      ATOMIC                      COORDINATES (BOHR)
           CHARGE         X                   Y                   Z
 C           6.0     0.0000000000       -4.6805111209       -2.6544980950
 C           6.0    -0.0000000000       -0.0000000000        2.6478651567
 C           6.0     0.0000000000       -4.6805111209        2.6544980950
 C           6.0     0.0000000000        0.0000000000       -2.6478651567
 C           6.0     0.0000000000       -6.9070051769       -1.3459951293
 C           6.0    -0.0000000000        2.3092829515        1.3635317864
 C           6.0     0.0000000000       -6.9070051769        1.3459951293
 C           6.0    -0.0000000000        2.3092829515       -1.3635317864
 C           6.0    -0.0000000000       -2.3092829515        1.3635317864
 C           6.0     0.0000000000       -2.3092829515       -1.3635317864
 C           6.0    -0.0000000000        6.9070051769        1.3459951293
 C           6.0     0.0000000000        6.9070051769       -1.3459951293
 C           6.0    -0.0000000000        4.6805111209        2.6544980950
 C           6.0     0.0000000000        4.6805111209       -2.6544980950
 H           1.0     0.0000000000        4.6810591414       -4.7070239765
 H           1.0     0.0000000000       -4.6810591414        4.7070239765
 H           1.0     0.0000000000        0.0000000000       -4.7019595109
 H           1.0    -0.0000000000       -0.0000000000        4.7019595109
 H           1.0    -0.0000000000        4.6810591414        4.7070239765
 H           1.0     0.0000000000       -4.6810591414       -4.7070239765
 H           1.0    -0.0000000000        8.6937033038        2.3528789301
 H           1.0     0.0000000000       -8.6937033038       -2.3528789301
 H           1.0     0.0000000000        8.6937033038       -2.3528789301
 H           1.0     0.0000000000       -8.6937033038        2.3528789301

          INTERNUCLEAR DISTANCES (ANGS.)
          ------------------------------

                1 C          2 C          3 C          4 C          5 C     

   1 C       0.0000000    3.7426803    2.8094000 *  2.4768225 *  1.3666156 *
   2 C       3.7426803    0.0000000    2.4768225 *  2.8023800 *  4.2220798  
   3 C       2.8094000 *  2.4768225 *  0.0000000    3.7426803    2.4227548 *
   4 C       2.4768225 *  2.8023800 *  3.7426803    0.0000000    3.7193891  
   5 C       1.3666156 *  4.2220798    2.4227548 *  3.7193891    0.0000000  
   6 C       4.2664220    1.3983002 *  3.7613975    2.4493587 *  5.0834493  
   7 C       2.4227548 *  3.7193891    1.3666156 *  4.2220798    1.4245400 *
   8 C       3.7613975    2.4493587 *  4.2664220    1.3983002 *  4.8770588  
   9 C       2.4688990 *  1.3983002 *  1.4287116 *  2.4493587 *  2.8240711 *
  10 C       1.4287116 *  2.4493587 *  2.4688990 *  1.3983002 *  2.4330277 *
  11 C       6.4869983    3.7193891    6.1708220    4.2220798    7.4475695  
  12 C       6.1708220    4.2220798    6.4869983    3.7193891    7.3100600  
  13 C       5.6948466    2.4768225 *  4.9536400    3.7426803    6.4869983  
  14 C       4.9536400    3.7426803    5.6948466    2.4768225 *  6.1708220  
  15 H       5.0716017    4.6134639    6.3021212    2.7061842 *  6.3848640  
  16 H       3.8955500    2.7061842 *  1.0861500 *  4.6134639    3.4128395  
  17 H       2.7034320 *  3.8893600    4.6140085    1.0869800 *  4.0636271  
  18 H       4.6140085    1.0869800 *  2.7034320 *  3.8893600    4.8581952  
  19 H       6.3021212    2.7061842 *  5.0716017    4.6134639    6.9183176  
  20 H       1.0861500 *  4.6134639    3.8955500    2.7061842 *  2.1332703 *
  21 H       7.5571150    4.6031576    7.0791296    5.3073054    8.4844092  
  22 H       2.1296795 *  5.3073054    3.3957983    4.6031576    1.0852786 *
  23 H       7.0791296    5.3073054    7.5571150    4.6031576    8.2727165  
  24 H       3.3957983    4.6031576    2.1296795 *  5.3073054    2.1737504 *

                6 C          7 C          8 C          9 C         10 C     

   1 C       4.2664220    2.4227548 *  3.7613975    2.4688990 *  1.4287116 *
   2 C       1.3983002 *  3.7193891    2.4493587 *  1.3983002 *  2.4493587 *
   3 C       3.7613975    1.3666156 *  4.2664220    1.4287116 *  2.4688990 *
   4 C       2.4493587 *  4.2220798    1.3983002 *  2.4493587 *  1.3983002 *
   5 C       5.0834493    1.4245400 *  4.8770588    2.8240711 *  2.4330277 *
   6 C       0.0000000    4.8770588    1.4431000 *  2.4440400 *  2.8382863 *
   7 C       4.8770588    0.0000000    5.0834493    2.4330277 *  2.8240711 *
   8 C       1.4431000 *  5.0834493    0.0000000    2.8382863 *  2.4440400 *
   9 C       2.4440400 *  2.4330277 *  2.8382863 *  0.0000000    1.4431000 *
  10 C       2.8382863 *  2.8240711 *  2.4440400 *  1.4431000 *  0.0000000  
  11 C       2.4330277 *  7.3100600    2.8240711 *  4.8770588    5.0834493  
  12 C       2.8240711 *  7.4475695    2.4330277 *  5.0834493    4.8770588  
  13 C       1.4287116 *  6.1708220    2.4688990 *  3.7613975    4.2664220  
  14 C       2.4688990 *  6.4869983    1.4287116 *  4.2664220    3.7613975  
  15 H       3.4488788    6.9183176    2.1692564 *  4.8992935    4.1004860  
  16 H       4.1004860    2.1332703 *  4.8992935    2.1692564 *  3.4488788  
  17 H       3.4344775    4.8581952    2.1480873 *  3.4344775    2.1480873 *
  18 H       2.1480873 *  4.0636271    3.4344775    2.1480873 *  3.4344775  
  19 H       2.1692564 *  6.3848640    3.4488788    4.1004860    4.8992935  
  20 H       4.8992935    3.4128395    4.1004860    3.4488788    2.1692564 *
  21 H       3.4188139    8.2727165    3.9092029    5.8460200    6.1456919  
  22 H       6.1456919    2.1737504 *  5.8460200    3.9092029    3.4188139  
  23 H       3.9092029    8.4844092    3.4188139    6.1456919    5.8460200  
  24 H       5.8460200    1.0852786 *  6.1456919    3.4188139    3.9092029  

               11 C         12 C         13 C         14 C         15 H     

   1 C       6.4869983    6.1708220    5.6948466    4.9536400    5.0716017  
   2 C       3.7193891    4.2220798    2.4768225 *  3.7426803    4.6134639  
   3 C       6.1708220    6.4869983    4.9536400    5.6948466    6.3021212  
   4 C       4.2220798    3.7193891    3.7426803    2.4768225 *  2.7061842 *
   5 C       7.4475695    7.3100600    6.4869983    6.1708220    6.3848640  
   6 C       2.4330277 *  2.8240711 *  1.4287116 *  2.4688990 *  3.4488788  
   7 C       7.3100600    7.4475695    6.1708220    6.4869983    6.9183176  
   8 C       2.8240711 *  2.4330277 *  2.4688990 *  1.4287116 *  2.1692564 *
   9 C       4.8770588    5.0834493    3.7613975    4.2664220    4.8992935  
  10 C       5.0834493    4.8770588    4.2664220    3.7613975    4.1004860  
  11 C       0.0000000    1.4245400 *  1.3666156 *  2.4227548 *  3.4128395  
  12 C       1.4245400 *  0.0000000    2.4227548 *  1.3666156 *  2.1332703 *
  13 C       1.3666156 *  2.4227548 *  0.0000000    2.8094000 *  3.8955500  
  14 C       2.4227548 *  1.3666156 *  2.8094000 *  0.0000000    1.0861500 *
  15 H       3.4128395    2.1332703 *  3.8955500    1.0861500 *  0.0000000  
  16 H       6.3848640    6.9183176    5.0716017    6.3021212    7.0257833  
  17 H       4.8581952    4.0636271    4.6140085    2.7034320 *  2.4771114 *
  18 H       4.0636271    4.8581952    2.7034320 *  4.6140085    5.5611792  
  19 H       2.1332703 *  3.4128395    1.0861500 *  3.8955500    4.9817000  
  20 H       6.9183176    6.3848640    6.3021212    5.0716017    4.9542200  
  21 H       1.0852786 *  2.1737504 *  2.1296795 *  3.3957983    4.2972172  
  22 H       8.4844092    8.2727165    7.5571150    7.0791296    7.1864193  
  23 H       2.1737504 *  1.0852786 *  3.3957983    2.1296795 *  2.4618581 *
  24 H       8.2727165    8.4844092    7.0791296    7.5571150    8.0031214  

               16 H         17 H         18 H         19 H         20 H     

   1 C       3.8955500    2.7034320 *  4.6140085    6.3021212    1.0861500 *
   2 C       2.7061842 *  3.8893600    1.0869800 *  2.7061842 *  4.6134639  
   3 C       1.0861500 *  4.6140085    2.7034320 *  5.0716017    3.8955500  
   4 C       4.6134639    1.0869800 *  3.8893600    4.6134639    2.7061842 *
   5 C       3.4128395    4.0636271    4.8581952    6.9183176    2.1332703 *
   6 C       4.1004860    3.4344775    2.1480873 *  2.1692564 *  4.8992935  
   7 C       2.1332703 *  4.8581952    4.0636271    6.3848640    3.4128395  
   8 C       4.8992935    2.1480873 *  3.4344775    3.4488788    4.1004860  
   9 C       2.1692564 *  3.4344775    2.1480873 *  4.1004860    3.4488788  
  10 C       3.4488788    2.1480873 *  3.4344775    4.8992935    2.1692564 *
  11 C       6.3848640    4.8581952    4.0636271    2.1332703 *  6.9183176  
  12 C       6.9183176    4.0636271    4.8581952    3.4128395    6.3848640  
  13 C       5.0716017    4.6140085    2.7034320 *  1.0861500 *  6.3021212  
  14 C       6.3021212    2.7034320 *  4.6140085    3.8955500    5.0716017  
  15 H       7.0257833    2.4771114 *  5.5611792    4.9817000    4.9542200  
  16 H       0.0000000    5.5611792    2.4771114 *  4.9542200    4.9817000  
  17 H       5.5611792    0.0000000    4.9763400    5.5611792    2.4771114 *
  18 H       2.4771114 *  4.9763400    0.0000000    2.4771114 *  5.5611792  
  19 H       4.9542200    5.5611792    2.4771114 *  0.0000000    7.0257833  
  20 H       4.9817000    2.4771114 *  5.5611792    7.0257833    0.0000000  
  21 H       7.1864193    5.9246875    4.7654947    2.4618581 *  8.0031214  
  22 H       4.2972172    4.7654947    5.9246875    8.0031214    2.4618581 *
  23 H       8.0031214    4.7654947    5.9246875    4.2972172    7.1864193  
  24 H       2.4618581 *  5.9246875    4.7654947    7.1864193    4.2972172  

               21 H         22 H         23 H         24 H     

   1 C       7.5571150    2.1296795 *  7.0791296    3.3957983  
   2 C       4.6031576    5.3073054    5.3073054    4.6031576  
   3 C       7.0791296    3.3957983    7.5571150    2.1296795 *
   4 C       5.3073054    4.6031576    4.6031576    5.3073054  
   5 C       8.4844092    1.0852786 *  8.2727165    2.1737504 *
   6 C       3.4188139    6.1456919    3.9092029    5.8460200  
   7 C       8.2727165    2.1737504 *  8.4844092    1.0852786 *
   8 C       3.9092029    5.8460200    3.4188139    6.1456919  
   9 C       5.8460200    3.9092029    6.1456919    3.4188139  
  10 C       6.1456919    3.4188139    5.8460200    3.9092029  
  11 C       1.0852786 *  8.4844092    2.1737504 *  8.2727165  
  12 C       2.1737504 *  8.2727165    1.0852786 *  8.4844092  
  13 C       2.1296795 *  7.5571150    3.3957983    7.0791296  
  14 C       3.3957983    7.0791296    2.1296795 *  7.5571150  
  15 H       4.2972172    7.1864193    2.4618581 *  8.0031214  
  16 H       7.1864193    4.2972172    8.0031214    2.4618581 *
  17 H       5.9246875    4.7654947    4.7654947    5.9246875  
  18 H       4.7654947    5.9246875    5.9246875    4.7654947  
  19 H       2.4618581 *  8.0031214    4.2972172    7.1864193  
  20 H       8.0031214    2.4618581 *  7.1864193    4.2972172  
  21 H       0.0000000    9.5320389    2.4901800 *  9.2010200  
  22 H       9.5320389    0.0000000    9.2010200    2.4901800 *
  23 H       2.4901800 *  9.2010200    0.0000000    9.5320389  
  24 H       9.2010200    2.4901800 *  9.5320389    0.0000000  

  * ... LESS THAN  3.000


     ATOMIC BASIS SET
     ----------------
 THE CONTRACTED PRIMITIVE FUNCTIONS HAVE BEEN UNNORMALIZED
 THE CONTRACTED BASIS FUNCTIONS ARE NOW NORMALIZED TO UNITY

  SHELL TYPE  PRIMITIVE        EXPONENT          CONTRACTION COEFFICIENT(S)

 C         

      1   S       1          3047.5248800    0.001834737132
      1   S       2           457.3695180    0.014037322813
      1   S       3           103.9486850    0.068842622264
      1   S       4            29.2101553    0.232184443216
      1   S       5             9.2866630    0.467941348435
      1   S       6             3.1639270    0.362311985337

      2   L       7             7.8682723   -0.119332419775    0.068999066591
      2   L       8             1.8812885   -0.160854151696    0.316423960957
      2   L       9             0.5442493    1.143456437840    0.744308290898

      3   L      10             0.1687145    1.000000000000    1.000000000000

 C         

      4   S      11          3047.5248800    0.001834737132
      4   S      12           457.3695180    0.014037322813
      4   S      13           103.9486850    0.068842622264
      4   S      14            29.2101553    0.232184443216
      4   S      15             9.2866630    0.467941348435
      4   S      16             3.1639270    0.362311985337

      5   L      17             7.8682723   -0.119332419775    0.068999066591
      5   L      18             1.8812885   -0.160854151696    0.316423960957
      5   L      19             0.5442493    1.143456437840    0.744308290898

      6   L      20             0.1687145    1.000000000000    1.000000000000

 C         

      7   S      21          3047.5248800    0.001834737132
      7   S      22           457.3695180    0.014037322813
      7   S      23           103.9486850    0.068842622264
      7   S      24            29.2101553    0.232184443216
      7   S      25             9.2866630    0.467941348435
      7   S      26             3.1639270    0.362311985337

      8   L      27             7.8682723   -0.119332419775    0.068999066591
      8   L      28             1.8812885   -0.160854151696    0.316423960957
      8   L      29             0.5442493    1.143456437840    0.744308290898

      9   L      30             0.1687145    1.000000000000    1.000000000000

 C         

     10   S      31          3047.5248800    0.001834737132
     10   S      32           457.3695180    0.014037322813
     10   S      33           103.9486850    0.068842622264
     10   S      34            29.2101553    0.232184443216
     10   S      35             9.2866630    0.467941348435
     10   S      36             3.1639270    0.362311985337

     11   L      37             7.8682723   -0.119332419775    0.068999066591
     11   L      38             1.8812885   -0.160854151696    0.316423960957
     11   L      39             0.5442493    1.143456437840    0.744308290898

     12   L      40             0.1687145    1.000000000000    1.000000000000

 C         

     13   S      41          3047.5248800    0.001834737132
     13   S      42           457.3695180    0.014037322813
     13   S      43           103.9486850    0.068842622264
     13   S      44            29.2101553    0.232184443216
     13   S      45             9.2866630    0.467941348435
     13   S      46             3.1639270    0.362311985337

     14   L      47             7.8682723   -0.119332419775    0.068999066591
     14   L      48             1.8812885   -0.160854151696    0.316423960957
     14   L      49             0.5442493    1.143456437840    0.744308290898

     15   L      50             0.1687145    1.000000000000    1.000000000000

 C         

     16   S      51          3047.5248800    0.001834737132
     16   S      52           457.3695180    0.014037322813
     16   S      53           103.9486850    0.068842622264
     16   S      54            29.2101553    0.232184443216
     16   S      55             9.2866630    0.467941348435
     16   S      56             3.1639270    0.362311985337

     17   L      57             7.8682723   -0.119332419775    0.068999066591
     17   L      58             1.8812885   -0.160854151696    0.316423960957
     17   L      59             0.5442493    1.143456437840    0.744308290898

     18   L      60             0.1687145    1.000000000000    1.000000000000

 C         

     19   S      61          3047.5248800    0.001834737132
     19   S      62           457.3695180    0.014037322813
     19   S      63           103.9486850    0.068842622264
     19   S      64            29.2101553    0.232184443216
     19   S      65             9.2866630    0.467941348435
     19   S      66             3.1639270    0.362311985337

     20   L      67             7.8682723   -0.119332419775    0.068999066591
     20   L      68             1.8812885   -0.160854151696    0.316423960957
     20   L      69             0.5442493    1.143456437840    0.744308290898

     21   L      70             0.1687145    1.000000000000    1.000000000000

 C         

     22   S      71          3047.5248800    0.001834737132
     22   S      72           457.3695180    0.014037322813
     22   S      73           103.9486850    0.068842622264
     22   S      74            29.2101553    0.232184443216
     22   S      75             9.2866630    0.467941348435
     22   S      76             3.1639270    0.362311985337

     23   L      77             7.8682723   -0.119332419775    0.068999066591
     23   L      78             1.8812885   -0.160854151696    0.316423960957
     23   L      79             0.5442493    1.143456437840    0.744308290898

     24   L      80             0.1687145    1.000000000000    1.000000000000

 C         

     25   S      81          3047.5248800    0.001834737132
     25   S      82           457.3695180    0.014037322813
     25   S      83           103.9486850    0.068842622264
     25   S      84            29.2101553    0.232184443216
     25   S      85             9.2866630    0.467941348435
     25   S      86             3.1639270    0.362311985337

     26   L      87             7.8682723   -0.119332419775    0.068999066591
     26   L      88             1.8812885   -0.160854151696    0.316423960957
     26   L      89             0.5442493    1.143456437840    0.744308290898

     27   L      90             0.1687145    1.000000000000    1.000000000000

 C         

     28   S      91          3047.5248800    0.001834737132
     28   S      92           457.3695180    0.014037322813
     28   S      93           103.9486850    0.068842622264
     28   S      94            29.2101553    0.232184443216
     28   S      95             9.2866630    0.467941348435
     28   S      96             3.1639270    0.362311985337

     29   L      97             7.8682723   -0.119332419775    0.068999066591
     29   L      98             1.8812885   -0.160854151696    0.316423960957
     29   L      99             0.5442493    1.143456437840    0.744308290898

     30   L     100             0.1687145    1.000000000000    1.000000000000

 C         

     31   S     101          3047.5248800    0.001834737132
     31   S     102           457.3695180    0.014037322813
     31   S     103           103.9486850    0.068842622264
     31   S     104            29.2101553    0.232184443216
     31   S     105             9.2866630    0.467941348435
     31   S     106             3.1639270    0.362311985337

     32   L     107             7.8682723   -0.119332419775    0.068999066591
     32   L     108             1.8812885   -0.160854151696    0.316423960957
     32   L     109             0.5442493    1.143456437840    0.744308290898

     33   L     110             0.1687145    1.000000000000    1.000000000000

 C         

     34   S     111          3047.5248800    0.001834737132
     34   S     112           457.3695180    0.014037322813
     34   S     113           103.9486850    0.068842622264
     34   S     114            29.2101553    0.232184443216
     34   S     115             9.2866630    0.467941348435
     34   S     116             3.1639270    0.362311985337

     35   L     117             7.8682723   -0.119332419775    0.068999066591
     35   L     118             1.8812885   -0.160854151696    0.316423960957
     35   L     119             0.5442493    1.143456437840    0.744308290898

     36   L     120             0.1687145    1.000000000000    1.000000000000

 C         

     37   S     121          3047.5248800    0.001834737132
     37   S     122           457.3695180    0.014037322813
     37   S     123           103.9486850    0.068842622264
     37   S     124            29.2101553    0.232184443216
     37   S     125             9.2866630    0.467941348435
     37   S     126             3.1639270    0.362311985337

     38   L     127             7.8682723   -0.119332419775    0.068999066591
     38   L     128             1.8812885   -0.160854151696    0.316423960957
     38   L     129             0.5442493    1.143456437840    0.744308290898

     39   L     130             0.1687145    1.000000000000    1.000000000000

 C         

     40   S     131          3047.5248800    0.001834737132
     40   S     132           457.3695180    0.014037322813
     40   S     133           103.9486850    0.068842622264
     40   S     134            29.2101553    0.232184443216
     40   S     135             9.2866630    0.467941348435
     40   S     136             3.1639270    0.362311985337

     41   L     137             7.8682723   -0.119332419775    0.068999066591
     41   L     138             1.8812885   -0.160854151696    0.316423960957
     41   L     139             0.5442493    1.143456437840    0.744308290898

     42   L     140             0.1687145    1.000000000000    1.000000000000

 H         

     43   S     141            18.7311370    0.033494604338
     43   S     142             2.8253944    0.234726953484
     43   S     143             0.6401217    0.813757326146

     44   S     144             0.1612778    1.000000000000

 H         

     45   S     145            18.7311370    0.033494604338
     45   S     146             2.8253944    0.234726953484
     45   S     147             0.6401217    0.813757326146

     46   S     148             0.1612778    1.000000000000

 H         

     47   S     149            18.7311370    0.033494604338
     47   S     150             2.8253944    0.234726953484
     47   S     151             0.6401217    0.813757326146

     48   S     152             0.1612778    1.000000000000

 H         

     49   S     153            18.7311370    0.033494604338
     49   S     154             2.8253944    0.234726953484
     49   S     155             0.6401217    0.813757326146

     50   S     156             0.1612778    1.000000000000

 H         

     51   S     157            18.7311370    0.033494604338
     51   S     158             2.8253944    0.234726953484
     51   S     159             0.6401217    0.813757326146

     52   S     160             0.1612778    1.000000000000

 H         

     53   S     161            18.7311370    0.033494604338
     53   S     162             2.8253944    0.234726953484
     53   S     163             0.6401217    0.813757326146

     54   S     164             0.1612778    1.000000000000

 H         

     55   S     165            18.7311370    0.033494604338
     55   S     166             2.8253944    0.234726953484
     55   S     167             0.6401217    0.813757326146

     56   S     168             0.1612778    1.000000000000

 H         

     57   S     169            18.7311370    0.033494604338
     57   S     170             2.8253944    0.234726953484
     57   S     171             0.6401217    0.813757326146

     58   S     172             0.1612778    1.000000000000

 H         

     59   S     173            18.7311370    0.033494604338
     59   S     174             2.8253944    0.234726953484
     59   S     175             0.6401217    0.813757326146

     60   S     176             0.1612778    1.000000000000

 H         

     61   S     177            18.7311370    0.033494604338
     61   S     178             2.8253944    0.234726953484
     61   S     179             0.6401217    0.813757326146

     62   S     180             0.1612778    1.000000000000

 TOTAL NUMBER OF BASIS SET SHELLS             =   62
 NUMBER OF CARTESIAN GAUSSIAN BASIS FUNCTIONS =  146
 NUMBER OF ELECTRONS                          =   94
 CHARGE OF MOLECULE                           =    0
 SPIN MULTIPLICITY                            =    1
 NUMBER OF OCCUPIED ORBITALS (ALPHA)          =   47
 NUMBER OF OCCUPIED ORBITALS (BETA )          =   47
 TOTAL NUMBER OF ATOMS                        =   24
 THE NUCLEAR REPULSION ENERGY IS      766.3548992199

     $CONTRL OPTIONS
     ---------------
 SCFTYP=RHF          RUNTYP=ENERGY       EXETYP=RUN     
 MPLEVL=       0     CITYP =NONE         CCTYP =NONE         VBTYP =XMVB    
 DFTTYP=NONE         TDDFT =NONE    
 MULT  =       1     ICHARG=       0     NZVAR =       0     COORD =UNIQUE  
 PP    =NONE         RELWFN=NONE         LOCAL =NONE         NUMGRD=       F
 ISPHER=      -1     NOSYM =       0     MAXIT =     100     UNITS =ANGS    
 PLTORB=       F     MOLPLT=       F     AIMPAC=       F     FRIEND=        
 NPRINT=       7     IREST =       0     GEOM  =INPUT   
 NORMF =       0     NORMP =       0     ITOL  =      20     ICUT  =       9
 INTTYP=BEST         GRDTYP=BEST         QMTTOL= 1.0E-06

     $SYSTEM OPTIONS
     ---------------
  REPLICATED MEMORY=     1000000 WORDS (ON EVERY NODE).
 DISTRIBUTED MEMDDI=           0 MILLION WORDS IN AGGREGATE,
 MEMDDI DISTRIBUTED OVER   1 PROCESSORS IS           0 WORDS/PROCESSOR.
 TOTAL MEMORY REQUESTED ON EACH PROCESSOR=     1000000 WORDS.
 TIMLIM=      525600.00 MINUTES, OR     365.0 DAYS.
 PARALL= F  BALTYP=  DLB     KDIAG=    0  COREFL= F
 MXSEQ2=     300 MXSEQ3=     150  mem10=         0  mem22=         0

 Using Gaussians for PCM contribution to MEP, params: 0.10000E+01 0.10000E-07

          ----------------
          PROPERTIES INPUT
          ----------------

     MOMENTS            FIELD           POTENTIAL          DENSITY
 IEMOM =       1   IEFLD =       0   IEPOT =       0   IEDEN =       0
 WHERE =COMASS     WHERE =NUCLEI     WHERE =NUCLEI     WHERE =NUCLEI  
 OUTPUT=BOTH       OUTPUT=BOTH       OUTPUT=BOTH       OUTPUT=BOTH    
 IEMINT=       0   IEFINT=       0                     IEDINT=       0
                                                       MORB  =       0
          EXTRAPOLATION IN EFFECT
          SOSCF IN EFFECT
 ORBITAL PRINTING OPTION: NPREO=     1   146     2     1

     -------------------------------
     INTEGRAL TRANSFORMATION OPTIONS
     -------------------------------
     NWORD  =            0
     CUTOFF = 1.0E-09     MPTRAN =       0
     DIRTRF =       T     AOINTS =DUP     

          ----------------------
          INTEGRAL INPUT OPTIONS
          ----------------------
 NOPK  =       1 NORDER=       0 SCHWRZ=       T

     ------------------------------------------
     THE POINT GROUP IS C1 , NAXIS= 0, ORDER= 1
     ------------------------------------------

     DIMENSIONS OF THE SYMMETRY SUBSPACES ARE
 A   =  146

 ..... DONE SETTING UP THE RUN .....
 STEP CPU TIME =     0.07 TOTAL CPU TIME =          0.1 (      0.0 MIN)
 TOTAL WALL CLOCK TIME=          0.1 SECONDS, CPU UTILIZATION IS    98.05%

          ********************
          1 ELECTRON INTEGRALS
          ********************
 ...... END OF ONE-ELECTRON INTEGRALS ......
 STEP CPU TIME =     0.03 TOTAL CPU TIME =          0.1 (      0.0 MIN)
 TOTAL WALL CLOCK TIME=          0.1 SECONDS, CPU UTILIZATION IS    98.57%

          -------------
          GUESS OPTIONS
          -------------
          GUESS =MOREAD            NORB  =      48          NORDER=       0
          MIX   =       F          PRTMO =       F          PUNMO =       F
          TOLZ  = 1.0E-08          TOLE  = 1.0E-05
          SYMDEN=       F          PURIFY=       F

 **** MO FREEZING IN EFFECT ****

   47 ORBITAL(S) FROZEN

 THEIR NUMBERS IN THE ORIGINAL MO SET ARE:
    1   2   3   4   5   6   7   8   9  10
   11  12  13  14  15  16  17  18  19  20
   21  22  23  24  25  26  27  28  29  30
   31  32  33  34  35  36  37  38  39  40
   41  42  43  44  45  46  47

 THE FROZEN MO-S WILL BE KEPT *FIRST* IN THE MO MATRIX
 IN THE SUBSEQUENT CALCULATIONS

 INITIAL GUESS ORBITALS GENERATED BY MOREAD   ROUTINE.

 SYMMETRIES FOR INITIAL GUESS ORBITALS FOLLOW.   BOTH SET(S).
    47 ORBITALS ARE OCCUPIED (   14 CORE ORBITALS).
     1=A        2=A        3=A        4=A        5=A        6=A        7=A   
     8=A        9=A       10=A       11=A       12=A       13=A       14=A   
    15=A       16=A       17=A       18=A       19=A       20=A       21=A   
    22=A       23=A       24=A       25=A       26=A       27=A       28=A   
    29=A       30=A       31=A       32=A       33=A       34=A       35=A   
    36=A       37=A       38=A       39=A       40=A       41=A       42=A   
    43=A       44=A       45=A       46=A       47=A       48=A       49=A   
    50=A       51=A       52=A       53=A       54=A       55=A       56=A   
    57=A       58=A       59=A       60=A       61=A       62=A       63=A   
    64=A       65=A       66=A       67=A       68=A       69=A       70=A   
    71=A       72=A       73=A       74=A       75=A       76=A       77=A   
    78=A       79=A       80=A       81=A       82=A       83=A       84=A   
    85=A       86=A       87=A       88=A       89=A       90=A       91=A   
    92=A       93=A       94=A       95=A       96=A       97=A       98=A   
    99=A      100=A      101=A      102=A      103=A      104=A      105=A   
   106=A      107=A      108=A      109=A      110=A      111=A      112=A   
   113=A      114=A      115=A      116=A      117=A      118=A      119=A   
   120=A      121=A      122=A      123=A      124=A      125=A      126=A   
   127=A      128=A      129=A      130=A      131=A      132=A      133=A   
   134=A      135=A      136=A      137=A      138=A      139=A      140=A   
   141=A      142=A      143=A      144=A      145=A      146=A   
 ...... END OF INITIAL ORBITAL SELECTION ......
 STEP CPU TIME =     0.02 TOTAL CPU TIME =          0.1 (      0.0 MIN)
 TOTAL WALL CLOCK TIME=          0.1 SECONDS, CPU UTILIZATION IS    98.80%

                    ----------------------
                    AO INTEGRAL TECHNOLOGY
                    ----------------------
     S,P,L SHELL ROTATED AXIS INTEGRALS, REPROGRAMMED BY
        KAZUYA ISHIMURA (IMS) AND JOSE SIERRA (SYNSTAR).
     S,P,D,L SHELL ROTATED AXIS INTEGRALS PROGRAMMED BY
        KAZUYA ISHIMURA (INSTITUTE FOR MOLECULAR SCIENCE).
     S,P,D,F,G SHELL TO TOTAL QUARTET ANGULAR MOMENTUM SUM 5,
        ERIC PROGRAM BY GRAHAM FLETCHER (ELORET AND NASA ADVANCED
        SUPERCOMPUTING DIVISION, AMES RESEARCH CENTER).
     S,P,D,F,G,L SHELL GENERAL RYS QUADRATURE PROGRAMMED BY
        MICHEL DUPUIS (PACIFIC NORTHWEST NATIONAL LABORATORY).

          --------------------
          2 ELECTRON INTEGRALS
          --------------------

 DIRECT SCF METHOD SKIPS INTEGRAL STORAGE ON DISK.
 DIRECT TRANSFORMATION SKIPS AO INTEGRAL STORAGE ON DISK.
  ...... END OF TWO-ELECTRON INTEGRALS .....
 STEP CPU TIME =     0.01 TOTAL CPU TIME =          0.1 (      0.0 MIN)
 TOTAL WALL CLOCK TIME=          0.1 SECONDS, CPU UTILIZATION IS    98.15%

          --------------------------
                 RHF SCF CALCULATION
          --------------------------

     NUCLEAR ENERGY =       766.3548992199
     MAXIT =  100     NPUNCH=    2
     EXTRAP=T  DAMP=F  SHIFT=F  RSTRCT=F  DIIS=F  DEM=F  SOSCF=T
     DENSITY MATRIX CONV=  2.00E-05
     SOSCF WILL OPTIMIZE    4653 ORBITAL ROTATIONS, SOGTOL=   0.250
     MEMORY REQUIRED FOR RHF ITERS=    218130 WORDS.

 DIRECT SCF CALCULATION, SCHWRZ=T   FDIFF=T,  DIRTHR=  0.00E+00 NITDIR=10
 SCHWARZ INEQUALITY OVERHEAD:     10132 INTEGRALS, T=        0.01

                                                                                   NONZERO     BLOCKS
 ITER EX DEM     TOTAL ENERGY        E CHANGE  DENSITY CHANGE     ORB. GRAD      INTEGRALS    SKIPPED
   1  0  0     -535.8080551729  -535.8080551729   0.000000002   0.000000000       20051707     997855
   2  1  0     -535.8080551733    -0.0000000004   0.000000000   0.000000000         490654    1891861

          -----------------
          DENSITY CONVERGED
          -----------------
     TIME TO FORM FOCK OPERATORS=       2.5 SECONDS (       1.3 SEC/ITER)
     FOCK TIME ON FIRST ITERATION=       2.5, LAST ITERATION=       2.5
     TIME TO SOLVE SCF EQUATIONS=       0.0 SECONDS (       0.0 SEC/ITER)

 FINAL RHF ENERGY IS     -535.8080551733 AFTER   2 ITERATIONS

          ------------
          EIGENVECTORS
          ------------

                      1          2          3          4          5
                  -11.2508   -11.2508   -11.2500   -11.2499   -11.2420
                     A          A          A          A          A   
    1  C  1  S    0.022587   0.022873   0.030027   0.030033  -0.335769
    2  C  1  S    0.000148   0.000205   0.000275   0.000231  -0.008159
    3  C  1  X   -0.000000  -0.000000   0.000000  -0.000000   0.000000
    4  C  1  Y   -0.000119  -0.000113  -0.000119  -0.000053  -0.000116
    5  C  1  Z   -0.000065  -0.000086  -0.000052  -0.000046  -0.000040
    6  C  1  S    0.001979   0.001539   0.001910   0.004453   0.004467
    7  C  1  X   -0.000000  -0.000000   0.000000  -0.000000   0.000000
    8  C  1  Y    0.001453   0.000671   0.000893   0.000123   0.000832
    9  C  1  Z    0.000294   0.000403   0.000916   0.002695   0.000536
   10  C  2  S    0.050729   0.000017  -0.047753  -0.000005  -0.000297
   11  C  2  S    0.000204   0.000000  -0.000210  -0.000000  -0.000011
   12  C  2  X   -0.000000  -0.000000   0.000000  -0.000000   0.000000
   13  C  2  Y   -0.000000   0.000300   0.000000  -0.000170  -0.000024
   14  C  2  Z    0.000187   0.000000  -0.000081  -0.000000  -0.000002
   15  C  2  S    0.006377   0.000002  -0.009242  -0.000001   0.000033
   16  C  2  X   -0.000000  -0.000000   0.000000  -0.000000   0.000000
   17  C  2  Y    0.000001  -0.002147   0.000000  -0.000042   0.000931
   18  C  2  Z   -0.001827  -0.000001   0.004499   0.000000   0.000001
   19  C  3  S    0.026720   0.026592  -0.025807  -0.026324  -0.391967
   20  C  3  S    0.000183   0.000229  -0.000240  -0.000196  -0.009588
   21  C  3  X   -0.000000  -0.000000   0.000000  -0.000000   0.000000
   22  C  3  Y   -0.000136  -0.000120   0.000098   0.000036  -0.000121
   23  C  3  Z    0.000072   0.000092  -0.000041  -0.000034   0.000065
   24  C  3  S    0.002259   0.002157  -0.001585  -0.004196   0.005678
   25  C  3  X   -0.000000  -0.000000   0.000000  -0.000000   0.000000
   26  C  3  Y    0.001584   0.000683  -0.000649  -0.000028   0.000835
   27  C  3  Z   -0.000422  -0.000779   0.000865   0.002612  -0.000909
   28  C  4  S    0.034309   0.000012   0.043772   0.000005  -0.000122
   29  C  4  S   -0.000042  -0.000000  -0.000050  -0.000000  -0.000008
   30  C  4  X   -0.000000  -0.000000   0.000000  -0.000000   0.000000
   31  C  4  Y   -0.000000   0.000273  -0.000000   0.000211  -0.000019
   32  C  4  Z   -0.000176  -0.000000  -0.000114  -0.000000   0.000002
   33  C  4  S    0.005026   0.000002   0.010382   0.000001   0.000041
   34  C  4  X   -0.000000  -0.000000   0.000000  -0.000000   0.000000
   35  C  4  Y    0.000001  -0.002130   0.000000  -0.000259   0.000789
   36  C  4  Z    0.001157   0.000000   0.004789   0.000001   0.000009
   37  C  5  S    0.000851   0.000834   0.002227   0.002335  -0.307386
   38  C  5  S   -0.000067  -0.000066   0.000094   0.000161  -0.007161
   39  C  5  X   -0.000000  -0.000000   0.000000  -0.000000   0.000000
   40  C  5  Y   -0.000046  -0.000064  -0.000017  -0.000046  -0.000035
   41  C  5  Z    0.000013   0.000010   0.000037   0.000053   0.000052
   42  C  5  S    0.000464  -0.000001  -0.000942  -0.002895   0.002007
   43  C  5  X   -0.000000  -0.000000   0.000000  -0.000000   0.000000
   44  C  5  Y    0.000128   0.000091  -0.000475  -0.001536  -0.000300
   45  C  5  Z   -0.000178   0.000053  -0.000573  -0.000486  -0.000217
   46  C  6  S    0.534386  -0.531054  -0.455033   0.461026  -0.021685
   47  C  6  S    0.013226  -0.013188  -0.012257   0.012316  -0.000923
   48  C  6  X   -0.000000  -0.000000   0.000000  -0.000000   0.000000
   49  C  6  Y    0.000023   0.000085   0.000045  -0.000002  -0.000203
   50  C  6  Z    0.000097  -0.000061   0.000188  -0.000186   0.000010
   51  C  6  S   -0.009099   0.007653   0.016546  -0.013899   0.002014
   52  C  6  X   -0.000000  -0.000000   0.000000  -0.000000   0.000000
   53  C  6  Y    0.000511  -0.000051  -0.002845  -0.001904   0.001903
   54  C  6  Z   -0.001207   0.000641  -0.003332   0.004577  -0.000050
   55  C  7  S    0.001136   0.001103  -0.002023  -0.002158  -0.322528
   56  C  7  S   -0.000054  -0.000044  -0.000102  -0.000168  -0.007491
   57  C  7  X   -0.000000  -0.000000   0.000000  -0.000000   0.000000
   58  C  7  Y   -0.000047  -0.000070   0.000010   0.000037  -0.000029
   59  C  7  Z   -0.000019  -0.000017   0.000034   0.000052  -0.000036
   60  C  7  S    0.000328  -0.000409   0.001009   0.002866   0.001647
   61  C  7  X   -0.000000  -0.000000   0.000000  -0.000000   0.000000
   62  C  7  Y    0.000063  -0.000127   0.000489   0.001534  -0.000590
   63  C  7  Z    0.000262   0.000017  -0.000535  -0.000489   0.000222
   64  C  8  S    0.455729  -0.460924   0.534556  -0.531150  -0.018392
   65  C  8  S    0.011134  -0.011325   0.014226  -0.014050  -0.000772
   66  C  8  X   -0.000000  -0.000000   0.000000  -0.000000   0.000000
   67  C  8  Y    0.000028   0.000084  -0.000045   0.000014  -0.000191
   68  C  8  Z   -0.000126   0.000086   0.000171  -0.000176  -0.000017
   69  C  8  S   -0.006497   0.005624  -0.017869   0.014836   0.001277
   70  C  8  X   -0.000000  -0.000000   0.000000  -0.000000   0.000000
   71  C  8  Y    0.000104  -0.000321   0.002941   0.001876   0.001529
   72  C  8  Z    0.001685  -0.001273  -0.003091   0.004443  -0.000176
   73  C  9  S    0.534018   0.531415  -0.454938  -0.461130   0.020422
   74  C  9  S    0.013217   0.013197  -0.012255  -0.012319   0.000866
   75  C  9  X   -0.000000  -0.000000   0.000000  -0.000000   0.000000
   76  C  9  Y   -0.000023   0.000085  -0.000045  -0.000002  -0.000192
   77  C  9  Z    0.000097   0.000061   0.000188   0.000186  -0.000009
   78  C  9  S   -0.009093  -0.007659   0.016543   0.013903  -0.001880
   79  C  9  X   -0.000000  -0.000000   0.000000  -0.000000   0.000000
   80  C  9  Y   -0.000511  -0.000051   0.002846  -0.001903   0.001827
   81  C  9  Z   -0.001206  -0.000642  -0.003331  -0.004578   0.000044
   82  C 10  S    0.455419   0.461241   0.534436   0.531262   0.017310
   83  C 10  S    0.011126   0.011333   0.014222   0.014053   0.000725
   84  C 10  X   -0.000000  -0.000000   0.000000  -0.000000   0.000000
   85  C 10  Y   -0.000028   0.000084   0.000045   0.000014  -0.000181
   86  C 10  Z   -0.000126  -0.000086   0.000171   0.000176   0.000015
   87  C 10  S   -0.006493  -0.005628  -0.017865  -0.014840  -0.001203
   88  C 10  X   -0.000000  -0.000000   0.000000  -0.000000   0.000000
   89  C 10  Y   -0.000104  -0.000321  -0.002942   0.001875   0.001453
   90  C 10  Z    0.001684   0.001275  -0.003090  -0.004444   0.000168
   91  C 11  S    0.001137  -0.001102  -0.002023   0.002158   0.342884
   92  C 11  S   -0.000054   0.000044  -0.000102   0.000168   0.007962
   93  C 11  X   -0.000000  -0.000000   0.000000  -0.000000   0.000000
   94  C 11  Y    0.000047  -0.000070  -0.000010   0.000037  -0.000030
   95  C 11  Z   -0.000019   0.000017   0.000034  -0.000052   0.000038
   96  C 11  S    0.000328   0.000409   0.001010  -0.002866  -0.001741
   97  C 11  X   -0.000000  -0.000000   0.000000  -0.000000   0.000000
   98  C 11  Y   -0.000063  -0.000127  -0.000489   0.001534  -0.000630
   99  C 11  Z    0.000262  -0.000017  -0.000535   0.000489  -0.000230
  100  C 12  S    0.000851  -0.000833   0.002228  -0.002335   0.326732
  101  C 12  S   -0.000067   0.000066   0.000094  -0.000161   0.007610
  102  C 12  X   -0.000000  -0.000000   0.000000  -0.000000   0.000000
  103  C 12  Y    0.000046  -0.000064   0.000017  -0.000046  -0.000037
  104  C 12  Z    0.000013  -0.000010   0.000037  -0.000053  -0.000055
  105  C 12  S    0.000464   0.000001  -0.000942   0.002895  -0.002119
  106  C 12  X   -0.000000  -0.000000   0.000000  -0.000000   0.000000
  107  C 12  Y   -0.000128   0.000091   0.000476  -0.001536  -0.000323
  108  C 12  Z   -0.000178  -0.000053  -0.000573   0.000486   0.000225
  109  C 13  S    0.026738  -0.026574  -0.025813   0.026318   0.416769
  110  C 13  S    0.000183  -0.000228  -0.000240   0.000196   0.010192
  111  C 13  X   -0.000000  -0.000000   0.000000  -0.000000   0.000000
  112  C 13  Y    0.000136  -0.000120  -0.000098   0.000036  -0.000127
  113  C 13  Z    0.000072  -0.000092  -0.000041   0.000034  -0.000069
  114  C 13  S    0.002260  -0.002156  -0.001585   0.004195  -0.006019
  115  C 13  X   -0.000000  -0.000000   0.000000  -0.000000   0.000000
  116  C 13  Y   -0.001584   0.000682   0.000649  -0.000027   0.000866
  117  C 13  Z   -0.000422   0.000779   0.000866  -0.002612   0.000957
  118  C 14  S    0.022603  -0.022857   0.030034  -0.030026   0.356850
  119  C 14  S    0.000149  -0.000205   0.000275  -0.000231   0.008669
  120  C 14  X   -0.000000  -0.000000   0.000000  -0.000000   0.000000
  121  C 14  Y    0.000119  -0.000113   0.000119  -0.000053  -0.000122
  122  C 14  Z   -0.000065   0.000086  -0.000052   0.000046   0.000043
  123  C 14  S    0.001980  -0.001538   0.001911  -0.004453  -0.004740
  124  C 14  X   -0.000000  -0.000000   0.000000  -0.000000   0.000000
  125  C 14  Y   -0.001453   0.000670  -0.000893   0.000123   0.000864
  126  C 14  Z    0.000294  -0.000403   0.000917  -0.002695  -0.000566
  127  H 15  S   -0.000095   0.000035  -0.000084  -0.000030  -0.000110
  128  H 15  S    0.000034  -0.000049   0.000161  -0.000612   0.000708
  129  H 16  S   -0.000108  -0.000030   0.000068  -0.000035   0.000129
  130  H 16  S    0.000052   0.000134  -0.000154  -0.000599  -0.000695
  131  H 17  S   -0.000109  -0.000000  -0.000050  -0.000000  -0.000001
  132  H 17  S    0.000058   0.000000   0.000806   0.000000  -0.000002
  133  H 18  S   -0.000120  -0.000000   0.000035  -0.000000  -0.000002
  134  H 18  S    0.000190   0.000000  -0.000801  -0.000000  -0.000006
  135  H 19  S   -0.000108   0.000030   0.000068   0.000035  -0.000138
  136  H 19  S    0.000053  -0.000134  -0.000154   0.000599   0.000745
  137  H 20  S   -0.000095  -0.000035  -0.000084   0.000030   0.000102
  138  H 20  S    0.000034   0.000049   0.000161   0.000612  -0.000663
  139  H 21  S   -0.000013  -0.000017   0.000020  -0.000030  -0.000133
  140  H 21  S    0.000034  -0.000064   0.000145  -0.000306   0.000933
  141  H 22  S   -0.000010   0.000021  -0.000023  -0.000028   0.000122
  142  H 22  S    0.000054   0.000107  -0.000140  -0.000294  -0.000797
  143  H 23  S   -0.000010  -0.000021  -0.000023   0.000028  -0.000130
  144  H 23  S    0.000054  -0.000107  -0.000140   0.000294   0.000847
  145  H 24  S   -0.000013   0.000017   0.000020   0.000030   0.000125
  146  H 24  S    0.000034   0.000064   0.000145   0.000307  -0.000877

                      6          7          8          9         10
                  -11.2420   -11.2417   -11.2417   -11.2406   -11.2406
                     A          A          A          A          A   
    1  C  1  S    0.356395   0.465401   0.467929   0.330688  -0.343303
    2  C  1  S    0.008627   0.011674   0.011747   0.008793  -0.009096
    3  C  1  X    0.000000  -0.000000  -0.000000   0.000000  -0.000000
    4  C  1  Y    0.000102   0.000087   0.000051  -0.000129   0.000106
    5  C  1  Z    0.000046   0.000202   0.000187   0.000211  -0.000215
    6  C  1  S   -0.004632  -0.006711  -0.008375  -0.009370   0.009054
    7  C  1  X    0.000000  -0.000000  -0.000000   0.000000  -0.000000
    8  C  1  Y   -0.000559   0.000071  -0.000128   0.000331  -0.000551
    9  C  1  Z   -0.000513  -0.001398  -0.002339  -0.002444   0.002255
   10  C  2  S   -0.009699   0.013694   0.000043   0.000246   0.013132
   11  C  2  S   -0.000361   0.000071   0.000000   0.000006   0.000327
   12  C  2  X    0.000000  -0.000000  -0.000000   0.000000  -0.000000
   13  C  2  Y    0.000001   0.000000  -0.000054   0.000015  -0.000000
   14  C  2  Z   -0.000054   0.000033   0.000000   0.000000   0.000024
   15  C  2  S    0.001085   0.003697   0.000011   0.000000   0.000014
   16  C  2  X    0.000000  -0.000000  -0.000000   0.000000  -0.000000
   17  C  2  Y   -0.000028  -0.000004   0.001254   0.000818  -0.000015
   18  C  2  Z    0.000018  -0.003167  -0.000010   0.000004   0.000222
   19  C  3  S    0.417209  -0.433700  -0.436863   0.308852  -0.320498
   20  C  3  S    0.010171  -0.010935  -0.011020   0.008233  -0.008510
   21  C  3  X    0.000000  -0.000000  -0.000000   0.000000  -0.000000
   22  C  3  Y    0.000111  -0.000071  -0.000032  -0.000130   0.000108
   23  C  3  Z   -0.000074   0.000203   0.000190  -0.000201   0.000204
   24  C  3  S   -0.005740   0.006473   0.008143  -0.008833   0.008559
   25  C  3  X    0.000000  -0.000000  -0.000000   0.000000  -0.000000
   26  C  3  Y   -0.000536  -0.000158   0.000012   0.000329  -0.000528
   27  C  3  Z    0.000801  -0.001416  -0.002352   0.002271  -0.002095
   28  C  4  S   -0.004000  -0.006887  -0.000021   0.000091   0.004850
   29  C  4  S   -0.000246   0.000087   0.000000   0.000002   0.000100
   30  C  4  X    0.000000  -0.000000  -0.000000   0.000000  -0.000000
   31  C  4  Y    0.000001  -0.000000   0.000056   0.000016  -0.000000
   32  C  4  Z    0.000051   0.000041   0.000000  -0.000001  -0.000031
   33  C  4  S    0.001337  -0.003706  -0.000012   0.000006   0.000330
   34  C  4  X    0.000000  -0.000000  -0.000000   0.000000  -0.000000
   35  C  4  Y   -0.000024   0.000004  -0.001388   0.000774  -0.000015
   36  C  4  Z    0.000296  -0.003193  -0.000010  -0.000001  -0.000037
   37  C  5  S    0.326470   0.234235   0.235340  -0.368134   0.382100
   38  C  5  S    0.007578   0.005591   0.005602  -0.009335   0.009680
   39  C  5  X    0.000000  -0.000000  -0.000000   0.000000  -0.000000
   40  C  5  Y    0.000031  -0.000019  -0.000003  -0.000181   0.000196
   41  C  5  Z   -0.000054   0.000175   0.000164  -0.000042   0.000029
   42  C  5  S   -0.001886  -0.000876  -0.000124   0.006662  -0.006824
   43  C  5  X    0.000000  -0.000000  -0.000000   0.000000  -0.000000
   44  C  5  Y    0.000396   0.001210   0.001563   0.001953  -0.001937
   45  C  5  Z    0.000152  -0.000750  -0.000564  -0.000452   0.000525
   46  C  6  S   -0.019973   0.024910  -0.025683   0.015173   0.013950
   47  C  6  S   -0.000901   0.001212  -0.001120   0.000643   0.000617
   48  C  6  X    0.000000  -0.000000  -0.000000   0.000000  -0.000000
   49  C  6  Y   -0.000176   0.000062  -0.000071   0.000065   0.000024
   50  C  6  Z    0.000026   0.000052  -0.000048   0.000040   0.000003
   51  C  6  S    0.002116  -0.007694   0.004911  -0.003308  -0.002304
   52  C  6  X    0.000000  -0.000000  -0.000000   0.000000  -0.000000
   53  C  6  Y    0.001185   0.001169   0.002398  -0.001415  -0.001054
   54  C  6  Z   -0.000096   0.001894  -0.001907  -0.000940  -0.000485
   55  C  7  S    0.343010  -0.178732  -0.180352  -0.370156   0.384460
   56  C  7  S    0.007942  -0.004271  -0.004290  -0.009360   0.009713
   57  C  7  X    0.000000  -0.000000  -0.000000   0.000000  -0.000000
   58  C  7  Y    0.000023   0.000030   0.000015  -0.000177   0.000192
   59  C  7  Z    0.000034   0.000178   0.000168   0.000047  -0.000035
   60  C  7  S   -0.001600   0.000388  -0.000384   0.006399  -0.006565
   61  C  7  X    0.000000  -0.000000  -0.000000   0.000000  -0.000000
   62  C  7  Y    0.000662  -0.001224  -0.001590   0.001807  -0.001787
   63  C  7  Z   -0.000128  -0.000790  -0.000611   0.000481  -0.000548
   64  C  8  S   -0.017206  -0.027313   0.027600   0.016603   0.015833
   65  C  8  S   -0.000759  -0.001312   0.001196   0.000707   0.000708
   66  C  8  X    0.000000  -0.000000  -0.000000   0.000000  -0.000000
   67  C  8  Y   -0.000165  -0.000080   0.000091   0.000070   0.000026
   68  C  8  Z   -0.000032   0.000048  -0.000045  -0.000042  -0.000006
   69  C  8  S    0.001175   0.007848  -0.004960  -0.003623  -0.002858
   70  C  8  X    0.000000  -0.000000  -0.000000   0.000000  -0.000000
   71  C  8  Y    0.001199  -0.001095  -0.002536  -0.001581  -0.001027
   72  C  8  Z   -0.000127   0.001901  -0.001936   0.000860   0.000358
   73  C  9  S   -0.021257   0.024751   0.025839  -0.014640   0.014511
   74  C  9  S   -0.000956   0.001205   0.001128  -0.000620   0.000641
   75  C  9  X    0.000000  -0.000000  -0.000000   0.000000  -0.000000
   76  C  9  Y    0.000188  -0.000061  -0.000072   0.000064  -0.000026
   77  C  9  Z    0.000027   0.000051   0.000048  -0.000039   0.000004
   78  C  9  S    0.002234  -0.007663  -0.004959   0.003220  -0.002427
   79  C  9  X    0.000000  -0.000000  -0.000000   0.000000  -0.000000
   80  C  9  Y   -0.001299  -0.001184   0.002391  -0.001375   0.001107
   81  C  9  Z   -0.000099   0.001882   0.001919   0.000921  -0.000520
   82  C 10  S   -0.018300  -0.027139  -0.027768  -0.015996   0.016444
   83  C 10  S   -0.000805  -0.001305  -0.001205  -0.000680   0.000734
   84  C 10  X    0.000000  -0.000000  -0.000000   0.000000  -0.000000
   85  C 10  Y    0.000176   0.000079   0.000092   0.000069  -0.000029
   86  C 10  Z   -0.000033   0.000048   0.000045   0.000042  -0.000007
   87  C 10  S    0.001252   0.007817   0.005009   0.003513  -0.002992
   88  C 10  X    0.000000  -0.000000  -0.000000   0.000000  -0.000000
   89  C 10  Y   -0.001291   0.001111  -0.002529  -0.001541   0.001085
   90  C 10  Z   -0.000137   0.001889   0.001948  -0.000846   0.000390
   91  C 11  S    0.322683  -0.179800   0.179183   0.384312   0.370310
   92  C 11  S    0.007470  -0.004296   0.004262   0.009718   0.009355
   93  C 11  X    0.000000  -0.000000  -0.000000   0.000000  -0.000000
   94  C 11  Y   -0.000021  -0.000030   0.000015  -0.000184  -0.000185
   95  C 11  Z    0.000032   0.000180  -0.000166  -0.000048  -0.000033
   96  C 11  S   -0.001496   0.000386   0.000387  -0.006640  -0.006320
   97  C 11  X    0.000000  -0.000000  -0.000000   0.000000  -0.000000
   98  C 11  Y   -0.000626   0.001234  -0.001582   0.001873   0.001718
   99  C 11  Z   -0.000114  -0.000794   0.000606  -0.000501  -0.000530
  100  C 12  S    0.307071   0.235748  -0.233927   0.382200   0.368025
  101  C 12  S    0.007126   0.005627  -0.005568   0.009691   0.009323
  102  C 12  X    0.000000  -0.000000  -0.000000   0.000000  -0.000000
  103  C 12  Y   -0.000029   0.000019  -0.000003  -0.000188  -0.000189
  104  C 12  Z   -0.000050   0.000176  -0.000163   0.000043   0.000027
  105  C 12  S   -0.001760  -0.000877   0.000119  -0.006913  -0.006570
  106  C 12  X    0.000000  -0.000000  -0.000000   0.000000  -0.000000
  107  C 12  Y   -0.000377  -0.001220   0.001556   0.002024   0.001862
  108  C 12  Z    0.000138  -0.000754   0.000559   0.000471   0.000508
  109  C 13  S    0.392544  -0.436381   0.434120  -0.320630  -0.308670
  110  C 13  S    0.009568  -0.011003   0.010951  -0.008545  -0.008195
  111  C 13  X    0.000000  -0.000000  -0.000000   0.000000  -0.000000
  112  C 13  Y   -0.000104   0.000071  -0.000031  -0.000134  -0.000103
  113  C 13  Z   -0.000070   0.000205  -0.000189   0.000209   0.000196
  114  C 13  S   -0.005384   0.006524  -0.008102   0.009147   0.008221
  115  C 13  X    0.000000  -0.000000  -0.000000   0.000000  -0.000000
  116  C 13  Y    0.000484   0.000158   0.000013   0.000349   0.000515
  117  C 13  Z    0.000745  -0.001431   0.002343  -0.002348  -0.002009
  118  C 14  S    0.335171   0.468332  -0.465044  -0.343351  -0.330684
  119  C 14  S    0.008111   0.011747  -0.011674  -0.009128  -0.008761
  120  C 14  X    0.000000  -0.000000  -0.000000   0.000000  -0.000000
  121  C 14  Y   -0.000094  -0.000088   0.000051  -0.000133  -0.000101
  122  C 14  Z    0.000043   0.000203  -0.000186  -0.000219  -0.000207
  123  C 14  S   -0.004349  -0.006763   0.008333   0.009704   0.008697
  124  C 14  X    0.000000  -0.000000  -0.000000   0.000000  -0.000000
  125  C 14  Y    0.000507  -0.000070  -0.000128   0.000351   0.000538
  126  C 14  Z   -0.000479  -0.001412   0.002330   0.002527   0.002162
  127  H 15  S   -0.000119  -0.000196   0.000219   0.000092   0.000087
  128  H 15  S    0.000732   0.000715  -0.000403  -0.000301  -0.000349
  129  H 16  S   -0.000152   0.000182   0.000209  -0.000079   0.000079
  130  H 16  S    0.000847  -0.000631  -0.000335   0.000279  -0.000347
  131  H 17  S   -0.000038  -0.000164  -0.000001  -0.000001  -0.000037
  132  H 17  S   -0.000060  -0.001039  -0.000003   0.000001   0.000072
  133  H 18  S   -0.000053   0.000154   0.000000  -0.000001  -0.000047
  134  H 18  S   -0.000183   0.001037   0.000003   0.000001   0.000034
  135  H 19  S   -0.000144   0.000183  -0.000208   0.000081   0.000076
  136  H 19  S    0.000803  -0.000633   0.000331  -0.000292  -0.000336
  137  H 20  S   -0.000126  -0.000195  -0.000220  -0.000089   0.000090
  138  H 20  S    0.000774   0.000713   0.000407   0.000288  -0.000361
  139  H 21  S   -0.000137   0.000058  -0.000052  -0.000151  -0.000138
  140  H 21  S    0.000876  -0.000497   0.000569   0.000524   0.000531
  141  H 22  S   -0.000140  -0.000080  -0.000074   0.000146  -0.000144
  142  H 22  S    0.000855   0.000623   0.000697  -0.000472   0.000518
  143  H 23  S   -0.000133  -0.000081   0.000073  -0.000151  -0.000138
  144  H 23  S    0.000804   0.000627  -0.000693   0.000491   0.000499
  145  H 24  S   -0.000145   0.000058   0.000052   0.000146  -0.000143
  146  H 24  S    0.000931  -0.000494  -0.000572  -0.000504   0.000550

                     11         12         13         14         15
                  -11.2399   -11.2399   -11.2397   -11.2409    -1.1886
                     A          A          A          A          A   
    1  C  1  S    0.188010   0.227386  -0.002046   0.004983  -0.048683
    2  C  1  S    0.005402   0.006528  -0.000218   0.000162   0.095815
    3  C  1  X   -0.000000   0.000000  -0.000000  -0.000000   0.000000
    4  C  1  Y   -0.000040  -0.000045   0.000016  -0.000006   0.013534
    5  C  1  Z    0.000128   0.000161  -0.000013   0.000050   0.031303
    6  C  1  S   -0.012093  -0.014278   0.000871   0.000162   0.056908
    7  C  1  X   -0.000000   0.000000  -0.000000  -0.000000   0.000000
    8  C  1  Y    0.000619   0.000343  -0.000503   0.000382   0.008477
    9  C  1  Z   -0.005063  -0.005626   0.001181  -0.000485   0.002512
   10  C  2  S    0.017412   0.001651   0.993386   0.003147  -0.069661
   11  C  2  S    0.000444   0.000042   0.025596  -0.000084   0.136590
   12  C  2  X   -0.000000   0.000000  -0.000000  -0.000000   0.000000
   13  C  2  Y   -0.000008   0.000080  -0.000000  -0.000000   0.000000
   14  C  2  Z    0.000028   0.000003  -0.000450   0.000041  -0.043755
   15  C  2  S   -0.004642  -0.000440  -0.023261   0.001296   0.092826
   16  C  2  X   -0.000000   0.000000  -0.000000  -0.000000   0.000000
   17  C  2  Y    0.000077  -0.000808   0.000000  -0.000000  -0.000000
   18  C  2  Z    0.001832   0.000174   0.006635  -0.001586  -0.007242
   19  C  3  S   -0.185240  -0.224421   0.015142  -0.000438  -0.048758
   20  C  3  S   -0.005345  -0.006468   0.000440  -0.000169   0.095989
   21  C  3  X   -0.000000   0.000000  -0.000000  -0.000000   0.000000
   22  C  3  Y    0.000043   0.000050  -0.000004   0.000017   0.013615
   23  C  3  Z    0.000129   0.000163  -0.000057   0.000012  -0.031331
   24  C  3  S    0.012122   0.014314  -0.000194   0.000759   0.056844
   25  C  3  X   -0.000000   0.000000  -0.000000  -0.000000   0.000000
   26  C  3  Y   -0.000637  -0.000367   0.000375  -0.000485   0.008439
   27  C  3  Z   -0.005087  -0.005650   0.000601  -0.001117  -0.002462
   28  C  4  S   -0.003845  -0.000365  -0.002766   0.994597  -0.069272
   29  C  4  S   -0.000100  -0.000009  -0.000243   0.025648   0.135754
   30  C  4  X   -0.000000   0.000000  -0.000000  -0.000000   0.000000
   31  C  4  Y    0.000008  -0.000080  -0.000000  -0.000000   0.000000
   32  C  4  Z    0.000034   0.000003  -0.000043   0.000451   0.043619
   33  C  4  S    0.004369   0.000414   0.001500  -0.023122   0.091939
   34  C  4  X   -0.000000   0.000000  -0.000000  -0.000000   0.000000
   35  C  4  Y   -0.000074   0.000780   0.000000   0.000000   0.000000
   36  C  4  Z    0.001765   0.000167   0.001682  -0.006555   0.007126
   37  C  5  S   -0.402858  -0.487131   0.002819  -0.000800  -0.037719
   38  C  5  S   -0.010971  -0.013271   0.000093  -0.000131   0.074201
   39  C  5  X   -0.000000   0.000000  -0.000000  -0.000000   0.000000
   40  C  5  Y   -0.000210  -0.000267  -0.000036   0.000003   0.027330
   41  C  5  Z   -0.000134  -0.000156  -0.000009  -0.000006   0.009294
   42  C  5  S    0.016150   0.019123  -0.001529   0.001058   0.046828
   43  C  5  X   -0.000000   0.000000  -0.000000  -0.000000   0.000000
   44  C  5  Y    0.005119   0.005983  -0.000662   0.000796   0.002766
   45  C  5  Z    0.003205   0.004024  -0.000162   0.000336  -0.001272
   46  C  6  S    0.009701  -0.008836  -0.050503   0.001548  -0.083784
   47  C  6  S    0.000620  -0.000566  -0.002480   0.000198   0.167580
   48  C  6  X   -0.000000   0.000000  -0.000000  -0.000000   0.000000
   49  C  6  Y    0.000105  -0.000076   0.000290   0.000053  -0.012783
   50  C  6  Z    0.000015  -0.000034  -0.000058   0.000064  -0.017334
   51  C  6  S   -0.005328   0.005546   0.012286  -0.004518   0.082164
   52  C  6  X   -0.000000   0.000000  -0.000000  -0.000000   0.000000
   53  C  6  Y   -0.005866   0.003496  -0.005262   0.000801   0.001011
   54  C  6  Z    0.000828   0.000529  -0.001321   0.002316  -0.009463
   55  C  7  S    0.413606   0.500338  -0.007520   0.000056  -0.037736
   56  C  7  S    0.011229   0.013591  -0.000317   0.000010   0.074227
   57  C  7  X   -0.000000   0.000000  -0.000000  -0.000000   0.000000
   58  C  7  Y    0.000213   0.000271  -0.000002  -0.000038   0.027353
   59  C  7  Z   -0.000134  -0.000156   0.000008   0.000009  -0.009276
   60  C  7  S   -0.016268  -0.019271   0.001353  -0.001330   0.046911
   61  C  7  X   -0.000000   0.000000  -0.000000  -0.000000   0.000000
   62  C  7  Y   -0.005130  -0.006004   0.000902  -0.000588   0.002802
   63  C  7  Z    0.003193   0.004011  -0.000381   0.000112   0.001238
   64  C  8  S   -0.010657   0.008972   0.002754  -0.040065  -0.083608
   65  C  8  S   -0.000662   0.000571   0.000253  -0.002200   0.167244
   66  C  8  X   -0.000000   0.000000  -0.000000  -0.000000   0.000000
   67  C  8  Y   -0.000104   0.000079   0.000051   0.000295  -0.012659
   68  C  8  Z    0.000014  -0.000033  -0.000062   0.000060   0.017523
   69  C  8  S    0.005427  -0.005519  -0.004804   0.011845   0.082013
   70  C  8  X   -0.000000   0.000000  -0.000000  -0.000000   0.000000
   71  C  8  Y    0.005816  -0.003512   0.000840  -0.005279   0.000857
   72  C  8  Z    0.000820   0.000516  -0.002401   0.001266   0.009507
   73  C  9  S    0.007868   0.010502  -0.050503   0.001548  -0.083784
   74  C  9  S    0.000503   0.000673  -0.002480   0.000198   0.167580
   75  C  9  X   -0.000000   0.000000  -0.000000  -0.000000   0.000000
   76  C  9  Y   -0.000089  -0.000094  -0.000290  -0.000053   0.012783
   77  C  9  Z    0.000009   0.000036  -0.000058   0.000064  -0.017334
   78  C  9  S   -0.004191  -0.006449   0.012286  -0.004518   0.082164
   79  C  9  X   -0.000000   0.000000  -0.000000  -0.000000   0.000000
   80  C  9  Y    0.005105   0.004536   0.005262  -0.000801  -0.001011
   81  C  9  Z    0.000913  -0.000364  -0.001321   0.002316  -0.009463
   82  C 10  S   -0.008781  -0.010814   0.002754  -0.040065  -0.083608
   83  C 10  S   -0.000543  -0.000685   0.000253  -0.002200   0.167244
   84  C 10  X   -0.000000   0.000000  -0.000000  -0.000000   0.000000
   85  C 10  Y    0.000087   0.000097  -0.000051  -0.000295   0.012659
   86  C 10  Z    0.000008   0.000035  -0.000062   0.000060   0.017523
   87  C 10  S    0.004293   0.006440  -0.004804   0.011845   0.082013
   88  C 10  X   -0.000000   0.000000  -0.000000  -0.000000   0.000000
   89  C 10  Y   -0.005052  -0.004542  -0.000840   0.005279  -0.000857
   90  C 10  Z    0.000903  -0.000353  -0.002401   0.001266   0.009507
   91  C 11  S    0.500268  -0.413718  -0.007520   0.000056  -0.037736
   92  C 11  S    0.013583  -0.011239  -0.000317   0.000010   0.074227
   93  C 11  X   -0.000000   0.000000  -0.000000  -0.000000   0.000000
   94  C 11  Y   -0.000260   0.000226   0.000002   0.000038  -0.027353
   95  C 11  Z   -0.000161   0.000128   0.000008   0.000009  -0.009276
   96  C 11  S   -0.019600   0.015871   0.001353  -0.001330   0.046911
   97  C 11  X   -0.000000   0.000000  -0.000000  -0.000000   0.000000
   98  C 11  Y    0.006167  -0.004933  -0.000902   0.000588  -0.002802
   99  C 11  Z    0.003890  -0.003340  -0.000381   0.000112   0.001238
  100  C 12  S   -0.487202   0.402743   0.002819  -0.000800  -0.037719
  101  C 12  S   -0.013269   0.010973   0.000093  -0.000131   0.074201
  102  C 12  X   -0.000000   0.000000  -0.000000  -0.000000   0.000000
  103  C 12  Y    0.000257  -0.000223   0.000036  -0.000003  -0.027330
  104  C 12  Z   -0.000161   0.000128  -0.000009  -0.000006   0.009294
  105  C 12  S    0.019455  -0.015747  -0.001529   0.001058   0.046828
  106  C 12  X   -0.000000   0.000000  -0.000000  -0.000000   0.000000
  107  C 12  Y   -0.006152   0.004915   0.000662  -0.000796  -0.002766
  108  C 12  Z    0.003904  -0.003350  -0.000162   0.000336  -0.001272
  109  C 13  S   -0.224108   0.185614   0.015141  -0.000438  -0.048758
  110  C 13  S   -0.006465   0.005348   0.000440  -0.000169   0.095989
  111  C 13  X   -0.000000   0.000000  -0.000000  -0.000000   0.000000
  112  C 13  Y   -0.000052   0.000041   0.000004  -0.000017  -0.013615
  113  C 13  Z    0.000157  -0.000136  -0.000057   0.000012  -0.031331
  114  C 13  S    0.014596  -0.011781  -0.000194   0.000759   0.056844
  115  C 13  X   -0.000000   0.000000  -0.000000  -0.000000   0.000000
  116  C 13  Y    0.000695  -0.000241  -0.000375   0.000485  -0.008439
  117  C 13  Z   -0.006058   0.004593   0.000601  -0.001117  -0.002462
  118  C 14  S    0.227390  -0.188009  -0.002046   0.004984  -0.048683
  119  C 14  S    0.006532  -0.005397  -0.000218   0.000162   0.095815
  120  C 14  X   -0.000000   0.000000  -0.000000  -0.000000   0.000000
  121  C 14  Y    0.000048  -0.000037  -0.000016   0.000006  -0.013534
  122  C 14  Z    0.000156  -0.000134  -0.000013   0.000050   0.031303
  123  C 14  S   -0.014560   0.011752   0.000871   0.000162   0.056908
  124  C 14  X   -0.000000   0.000000  -0.000000  -0.000000   0.000000
  125  C 14  Y   -0.000673   0.000221   0.000503  -0.000382  -0.008477
  126  C 14  Z   -0.006030   0.004575   0.001181  -0.000485   0.002512
  127  H 15  S   -0.000142   0.000086   0.000074  -0.000042   0.018511
  128  H 15  S   -0.000668   0.000409   0.000385  -0.000282   0.001806
  129  H 16  S    0.000123   0.000110  -0.000045   0.000072   0.018552
  130  H 16  S    0.000591   0.000539  -0.000279   0.000374   0.001808
  131  H 17  S    0.000073   0.000007   0.000087  -0.000415   0.026593
  132  H 17  S    0.000232   0.000022   0.000504   0.000888   0.002644
  133  H 18  S   -0.000079  -0.000007  -0.000411   0.000083   0.026785
  134  H 18  S   -0.000215  -0.000020   0.000864   0.000494   0.002665
  135  H 19  S    0.000141  -0.000085  -0.000045   0.000072   0.018552
  136  H 19  S    0.000681  -0.000418  -0.000279   0.000374   0.001808
  137  H 20  S   -0.000124  -0.000111   0.000074  -0.000042   0.018511
  138  H 20  S   -0.000579  -0.000527   0.000385  -0.000282   0.001806
  139  H 21  S   -0.000225   0.000192   0.000044  -0.000003   0.012913
  140  H 21  S   -0.000372   0.000310   0.000297  -0.000073   0.000182
  141  H 22  S    0.000181   0.000226  -0.000005   0.000041   0.012907
  142  H 22  S    0.000333   0.000401  -0.000085   0.000289   0.000170
  143  H 23  S    0.000220  -0.000188  -0.000005   0.000041   0.012907
  144  H 23  S    0.000403  -0.000332  -0.000085   0.000289   0.000170
  145  H 24  S   -0.000185  -0.000231   0.000044  -0.000003   0.012913
  146  H 24  S   -0.000308  -0.000374   0.000297  -0.000073   0.000182

                     16         17         18         19         20
                   -1.1492    -1.0873    -1.0655    -1.0245    -1.0067
                     A          A          A          A          A   
    1  C  1  S   -0.067082  -0.044151  -0.062663  -0.089784  -0.002473
    2  C  1  S    0.132734   0.088039   0.125336   0.181439   0.005769
    3  C  1  X    0.000000  -0.000000  -0.000000   0.000000   0.000000
    4  C  1  Y   -0.004965  -0.054674   0.019395  -0.004991   0.087773
    5  C  1  Z    0.043632   0.029750   0.015428   0.022880  -0.001582
    6  C  1  S    0.080193   0.044283   0.086882   0.115769   0.004615
    7  C  1  X    0.000000  -0.000000  -0.000000   0.000000   0.000000
    8  C  1  Y    0.003738  -0.007136  -0.000010   0.000308   0.014661
    9  C  1  Z   -0.000021  -0.006899   0.004179  -0.013874  -0.004538
   10  C  2  S    0.000000   0.063987   0.092173   0.000000  -0.000000
   11  C  2  S   -0.000000  -0.129198  -0.184402  -0.000000   0.000000
   12  C  2  X    0.000000  -0.000000  -0.000000   0.000000   0.000000
   13  C  2  Y   -0.046974   0.000000   0.000000   0.062209  -0.095106
   14  C  2  Z   -0.000000   0.040068   0.022072   0.000000  -0.000000
   15  C  2  S   -0.000000  -0.058270  -0.128140  -0.000000   0.000000
   16  C  2  X    0.000000  -0.000000  -0.000000   0.000000   0.000000
   17  C  2  Y   -0.015076  -0.000000  -0.000000   0.015673  -0.019450
   18  C  2  Z    0.000000  -0.017779   0.006601   0.000000  -0.000000
   19  C  3  S   -0.067104  -0.043544   0.063024   0.089769  -0.002187
   20  C  3  S    0.132794   0.086823  -0.126086  -0.181432   0.005211
   21  C  3  X    0.000000  -0.000000  -0.000000   0.000000   0.000000
   22  C  3  Y   -0.004936  -0.054949  -0.018638   0.004713   0.087855
   23  C  3  Z   -0.043648  -0.029604   0.015674   0.022864   0.001648
   24  C  3  S    0.080213   0.043530  -0.087106  -0.115759   0.004142
   25  C  3  X    0.000000  -0.000000  -0.000000   0.000000   0.000000
   26  C  3  Y    0.003749  -0.007118   0.000169  -0.000370   0.014671
   27  C  3  Z    0.000023   0.006924   0.004048  -0.013890   0.004536
   28  C  4  S   -0.000000   0.062686  -0.092930  -0.000000   0.000000
   29  C  4  S    0.000000  -0.126501   0.185798  -0.000000  -0.000000
   30  C  4  X    0.000000  -0.000000  -0.000000   0.000000   0.000000
   31  C  4  Y   -0.046821  -0.000000   0.000000  -0.061768  -0.094940
   32  C  4  Z    0.000000  -0.039712   0.022777  -0.000000   0.000000
   33  C  4  S    0.000000  -0.056389   0.128578   0.000000  -0.000000
   34  C  4  X    0.000000  -0.000000  -0.000000   0.000000   0.000000
   35  C  4  Y   -0.015030   0.000000   0.000000  -0.015538  -0.019424
   36  C  4  Z    0.000000   0.017802   0.006405   0.000000   0.000000
   37  C  5  S   -0.068234  -0.083674  -0.025621  -0.047685   0.075782
   38  C  5  S    0.134736   0.166108   0.051430   0.094738  -0.152506
   39  C  5  X    0.000000  -0.000000  -0.000000   0.000000   0.000000
   40  C  5  Y    0.041312   0.031425   0.028654   0.047553   0.003779
   41  C  5  Z    0.019032   0.029419  -0.030631  -0.056376  -0.039498
   42  C  5  S    0.084321   0.113729   0.030531   0.084116  -0.109755
   43  C  5  X    0.000000  -0.000000  -0.000000   0.000000   0.000000
   44  C  5  Y    0.005421   0.006230  -0.002638   0.006392   0.004555
   45  C  5  Z    0.002376   0.005168  -0.003667  -0.002527  -0.004944
   46  C  6  S    0.060652   0.037065   0.062674  -0.045943   0.082193
   47  C  6  S   -0.121537  -0.074317  -0.128279   0.092868  -0.167695
   48  C  6  X    0.000000  -0.000000  -0.000000   0.000000   0.000000
   49  C  6  Y   -0.036254   0.071729   0.014375   0.038453   0.000009
   50  C  6  Z    0.014314   0.009486  -0.074241   0.055068   0.033402
   51  C  6  S   -0.061785  -0.053676  -0.068711   0.075615  -0.115414
   52  C  6  X    0.000000  -0.000000  -0.000000   0.000000   0.000000
   53  C  6  Y   -0.010579   0.029112  -0.002082   0.026407  -0.001570
   54  C  6  Z    0.010833   0.003086  -0.021348   0.000042   0.010915
   55  C  7  S   -0.068238  -0.083446   0.026570   0.047446   0.075947
   56  C  7  S    0.134734   0.165640  -0.053318  -0.094248  -0.152828
   57  C  7  X    0.000000  -0.000000  -0.000000   0.000000   0.000000
   58  C  7  Y    0.041318   0.031164  -0.028916  -0.047537   0.003618
   59  C  7  Z   -0.019030  -0.029683  -0.030261  -0.056482   0.039300
   60  C  7  S    0.084354   0.113482  -0.031865  -0.083797  -0.110002
   61  C  7  X    0.000000  -0.000000  -0.000000   0.000000   0.000000
   62  C  7  Y    0.005441   0.006262   0.002569  -0.006409   0.004561
   63  C  7  Z   -0.002383  -0.005198  -0.003588  -0.002542   0.004936
   64  C  8  S    0.060626   0.036289  -0.063407   0.045723   0.082280
   65  C  8  S   -0.121471  -0.072781   0.129783  -0.092405  -0.167874
   66  C  8  X    0.000000  -0.000000  -0.000000   0.000000   0.000000
   67  C  8  Y   -0.036240   0.071382  -0.015178  -0.038473  -0.000133
   68  C  8  Z   -0.014347  -0.010377  -0.073918   0.055114  -0.033297
   69  C  8  S   -0.061802  -0.052657   0.069698  -0.075403  -0.115558
[...]
   11             0.057889   0.194632   0.271302   0.152643   0.109078
   12             0.061276   0.194610   0.316173   0.088616   0.107190
   13             0.101540   0.175801   0.043538   0.341623   0.325547
   14             0.095480   0.176060   0.089301   0.306199   0.325491
   15             0.000000   0.000000   0.000000   0.000000   0.000000
   16             0.000000   0.000000   0.000000   0.000000   0.000000
   17             0.000000   0.000000   0.000000   0.000000   0.000000
   18             0.000000   0.000000   0.000000   0.000000   0.000000
   19             0.000000   0.000000   0.000000   0.000000   0.000000
   20             0.000000   0.000000   0.000000   0.000000   0.000000
   21             0.000000   0.000000   0.000000   0.000000   0.000000
   22             0.000000   0.000000   0.000000   0.000000   0.000000
   23             0.000000   0.000000   0.000000   0.000000   0.000000
   24             0.000000   0.000000   0.000000   0.000000   0.000000

                     46         47

                  2.000000   2.000000

    1            -0.000187   0.010216
    2             0.000000   0.602498
    3            -0.000193   0.014233
    4             0.000000   0.789619
    5             0.200803   0.035182
    6             0.301341   0.074568
    7             0.199086   0.019482
    8             0.299149   0.150261
    9             0.301341   0.074571
   10             0.299149   0.150257
   11             0.199092   0.019482
   12             0.200799   0.035183
   13            -0.000193   0.014233
   14            -0.000187   0.010216
   15             0.000000   0.000000
   16             0.000000   0.000000
   17             0.000000   0.000000
   18             0.000000   0.000000
   19             0.000000   0.000000
   20             0.000000   0.000000
   21             0.000000   0.000000
   22             0.000000   0.000000
   23             0.000000   0.000000
   24             0.000000   0.000000

               ----- POPULATIONS IN EACH AO -----
                             MULLIKEN      LOWDIN
              1  C  1  S      1.99775     1.98907
              2  C  1  S      0.69921     0.55070
              3  C  1  X      0.52618     0.49204
              4  C  1  Y      0.75641     0.70487
              5  C  1  Z      0.73342     0.66707
              6  C  1  S      0.43370     0.39517
              7  C  1  X      0.47638     0.51201
              8  C  1  Y      0.15556     0.36401
              9  C  1  Z      0.38180     0.43483
             10  C  2  S      1.99775     1.98889
             11  C  2  S      0.70040     0.55101
             12  C  2  X      0.53753     0.50578
             13  C  2  Y      0.75731     0.70574
             14  C  2  Z      0.72806     0.66264
             15  C  2  S      0.39611     0.38967
             16  C  2  X      0.46995     0.50737
             17  C  2  Y      0.17447     0.35547
             18  C  2  Z      0.41122     0.43651
             19  C  3  S      1.99775     1.98907
             20  C  3  S      0.69930     0.55076
             21  C  3  X      0.52604     0.49196
             22  C  3  Y      0.75649     0.70493
             23  C  3  Z      0.73349     0.66713
             24  C  3  S      0.43363     0.39516
             25  C  3  X      0.47605     0.51172
             26  C  3  Y      0.15551     0.36399
             27  C  3  Z      0.38179     0.43482
             28  C  4  S      1.99774     1.98887
             29  C  4  S      0.69954     0.55044
             30  C  4  X      0.54157     0.50841
             31  C  4  Y      0.75573     0.70451
             32  C  4  Z      0.72643     0.66131
             33  C  4  S      0.39556     0.38961
             34  C  4  X      0.46063     0.50108
             35  C  4  Y      0.17434     0.35556
             36  C  4  Z      0.41121     0.43686
             37  C  5  S      1.99776     1.98917
             38  C  5  S      0.69623     0.54940
             39  C  5  X      0.52264     0.48735
             40  C  5  Y      0.75093     0.68732
             41  C  5  Z      0.74271     0.68782
             42  C  5  S      0.49215     0.40006
             43  C  5  X      0.48120     0.51636
             44  C  5  Y      0.32383     0.41729
             45  C  5  Z      0.20439     0.38991
             46  C  6  S      1.99778     1.98816
             47  C  6  S      0.69998     0.53988
             48  C  6  X      0.52993     0.48703
             49  C  6  Y      0.75983     0.70464
             50  C  6  Z      0.74144     0.69187
             51  C  6  S      0.43112     0.36449
             52  C  6  X      0.46115     0.49964
             53  C  6  Y      0.28297     0.37163
             54  C  6  Z      0.15975     0.37729
             55  C  7  S      1.99776     1.98917
             56  C  7  S      0.69617     0.54935
             57  C  7  X      0.52277     0.48745
             58  C  7  Y      0.75087     0.68727
             59  C  7  Z      0.74264     0.68776
             60  C  7  S      0.49213     0.40006
             61  C  7  X      0.48135     0.51650
             62  C  7  Y      0.32386     0.41730
             63  C  7  Z      0.20434     0.38989
             64  C  8  S      1.99778     1.98816
             65  C  8  S      0.70015     0.54002
             66  C  8  X      0.52991     0.48708
             67  C  8  Y      0.76025     0.70503
             68  C  8  Z      0.74152     0.69194
             69  C  8  S      0.43147     0.36454
             70  C  8  X      0.46155     0.49955
             71  C  8  Y      0.28358     0.37174
             72  C  8  Z      0.15995     0.37732
             73  C  9  S      1.99778     1.98816
             74  C  9  S      0.69998     0.53988
             75  C  9  X      0.52993     0.48703
             76  C  9  Y      0.75983     0.70464
             77  C  9  Z      0.74144     0.69187
             78  C  9  S      0.43112     0.36449
             79  C  9  X      0.46115     0.49964
             80  C  9  Y      0.28297     0.37163
             81  C  9  Z      0.15975     0.37729
             82  C 10  S      1.99778     1.98816
             83  C 10  S      0.70015     0.54002
             84  C 10  X      0.52991     0.48708
             85  C 10  Y      0.76025     0.70503
             86  C 10  Z      0.74152     0.69194
             87  C 10  S      0.43147     0.36454
             88  C 10  X      0.46155     0.49955
             89  C 10  Y      0.28358     0.37174
             90  C 10  Z      0.15995     0.37732
             91  C 11  S      1.99776     1.98917
             92  C 11  S      0.69617     0.54935
             93  C 11  X      0.52277     0.48746
             94  C 11  Y      0.75087     0.68727
             95  C 11  Z      0.74264     0.68776
             96  C 11  S      0.49213     0.40006
             97  C 11  X      0.48135     0.51650
             98  C 11  Y      0.32386     0.41730
             99  C 11  Z      0.20434     0.38989
            100  C 12  S      1.99776     1.98917
            101  C 12  S      0.69623     0.54940
            102  C 12  X      0.52264     0.48735
            103  C 12  Y      0.75093     0.68732
            104  C 12  Z      0.74271     0.68782
            105  C 12  S      0.49215     0.40006
            106  C 12  X      0.48120     0.51636
            107  C 12  Y      0.32383     0.41729
            108  C 12  Z      0.20439     0.38991
            109  C 13  S      1.99775     1.98907
            110  C 13  S      0.69930     0.55076
            111  C 13  X      0.52604     0.49196
            112  C 13  Y      0.75649     0.70493
            113  C 13  Z      0.73349     0.66713
            114  C 13  S      0.43363     0.39516
            115  C 13  X      0.47605     0.51172
            116  C 13  Y      0.15551     0.36399
            117  C 13  Z      0.38179     0.43482
            118  C 14  S      1.99775     1.98907
            119  C 14  S      0.69921     0.55070
            120  C 14  X      0.52618     0.49205
            121  C 14  Y      0.75641     0.70487
            122  C 14  Z      0.73342     0.66707
            123  C 14  S      0.43370     0.39517
            124  C 14  X      0.47638     0.51201
            125  C 14  Y      0.15556     0.36401
            126  C 14  Z      0.38180     0.43483
            127  H 15  S      0.53532     0.51445
            128  H 15  S      0.25438     0.36184
            129  H 16  S      0.53532     0.51444
            130  H 16  S      0.25433     0.36182
            131  H 17  S      0.53476     0.51436
            132  H 17  S      0.24849     0.36391
            133  H 18  S      0.53455     0.51411
            134  H 18  S      0.24747     0.36328
            135  H 19  S      0.53532     0.51444
            136  H 19  S      0.25433     0.36182
            137  H 20  S      0.53532     0.51445
            138  H 20  S      0.25438     0.36184
            139  H 21  S      0.53608     0.51486
            140  H 21  S      0.26189     0.36066
            141  H 22  S      0.53608     0.51486
            142  H 22  S      0.26187     0.36065
            143  H 23  S      0.53608     0.51486
            144  H 23  S      0.26187     0.36065
            145  H 24  S      0.53608     0.51486
            146  H 24  S      0.26189     0.36066

          ----- MULLIKEN ATOMIC OVERLAP POPULATIONS -----
          (OFF-DIAGONAL ELEMENTS NEED TO BE MULTIPLIED BY 2)

             1           2           3           4           5

    1    4.9618407
    2    0.0079448   5.0311960
    3   -0.0413926  -0.0290787   4.9623445
    4   -0.0288976  -0.0685520   0.0079489   5.0215659
    5    0.5630021  -0.0003128  -0.0572726   0.0034198   4.9999699
    6   -0.0002899   0.4657515   0.0036380  -0.0279497   0.0000811
    7   -0.0572355   0.0034272   0.5634136  -0.0003139   0.4489342
    8    0.0036580  -0.0282287  -0.0002886   0.4648763  -0.0003345
    9   -0.0268895   0.4657515   0.4210235  -0.0279495  -0.0247944
   10    0.4220848  -0.0282284  -0.0268828   0.4648759  -0.0513495
   11    0.0000003   0.0034272   0.0000014  -0.0003139  -0.0000000
   12    0.0000014  -0.0003128   0.0000003   0.0034198   0.0000000
   13   -0.0000148  -0.0290787  -0.0000765   0.0079489   0.0000003
   14   -0.0000766   0.0079448  -0.0000148  -0.0288979   0.0000014
   15    0.0000016  -0.0001433  -0.0000000   0.0033509   0.0000000
   16    0.0003007   0.0033433   0.3713130  -0.0001434   0.0020150
   17    0.0033303   0.0006516  -0.0001685   0.3647241   0.0001502
   18   -0.0001682   0.3643328   0.0033401   0.0006503   0.0000221
   19   -0.0000000   0.0033434   0.0000016  -0.0001434   0.0000000
   20    0.3713160  -0.0001434   0.0003011   0.0033510  -0.0191324
   21    0.0000000  -0.0001050  -0.0000000  -0.0000036  -0.0000000
   22   -0.0204160  -0.0000036   0.0023110  -0.0001050   0.3718375
   23   -0.0000000  -0.0000036   0.0000000  -0.0001050   0.0000000
   24    0.0023105  -0.0001050  -0.0204036  -0.0000036  -0.0243912

             6           7           8           9          10

    6    4.9631677
    7   -0.0003337   4.9994839
    8    0.4664370   0.0000808   4.9656200
    9   -0.0464880  -0.0513142  -0.0223502   4.9631673
   10   -0.0223503  -0.0248166  -0.0465036   0.4664370   4.9656221
   11   -0.0513141   0.0000000  -0.0248167  -0.0003337   0.0000808
   12   -0.0247943  -0.0000000  -0.0513495   0.0000811  -0.0003345
   13    0.4210243   0.0000014  -0.0268826   0.0036380  -0.0002886
   14   -0.0268898   0.0000003   0.4220857  -0.0002899   0.0036580
   15    0.0012594   0.0000000  -0.0342270   0.0000117   0.0001676
   16    0.0001675  -0.0191024   0.0000117  -0.0342445   0.0012610
   17    0.0010435   0.0000221  -0.0262969   0.0010435  -0.0262976
   18   -0.0261732   0.0001497   0.0010367  -0.0261731   0.0010367
   19   -0.0342443   0.0000000   0.0012610   0.0001675   0.0000117
   20    0.0000117   0.0020143   0.0001676   0.0012594  -0.0342271
   21    0.0019413   0.0000000   0.0002560   0.0000019   0.0000000
   22    0.0000000  -0.0243840   0.0000019   0.0002560   0.0019435
   23    0.0002560  -0.0000000   0.0019435   0.0000000   0.0000019
   24    0.0000019   0.3718502   0.0000000   0.0019413   0.0002559

            11          12          13          14          15

   11    4.9994862
   12    0.4489346   4.9999693
   13    0.5634132  -0.0572725   4.9623408
   14   -0.0572357   0.5630018  -0.0413926   4.9618424
   15    0.0020143  -0.0191326   0.0003011   0.3713162   0.4622963
   16    0.0000000   0.0000000   0.0000016  -0.0000000   0.0000000
   17    0.0000221   0.0001502  -0.0001685   0.0033303   0.0027278
   18    0.0001497   0.0000221   0.0033401  -0.0001682   0.0000011
   19   -0.0191022   0.0020150   0.3713126   0.0003007   0.0000095
   20    0.0000000   0.0000000  -0.0000000   0.0000016   0.0000015
   21    0.3718503  -0.0243911  -0.0204037   0.0023105  -0.0001071
   22   -0.0000000   0.0000000   0.0000000  -0.0000000   0.0000000
   23   -0.0243840   0.3718375   0.0023110  -0.0204160  -0.0001514
   24    0.0000000  -0.0000000  -0.0000000   0.0000000  -0.0000000

            16          17          18          19          20

   16    0.4622496
   17    0.0000011   0.4562574
   18    0.0027222   0.0000142   0.4551722
   19    0.0000015   0.0000011   0.0027222   0.4622493
   20    0.0000095   0.0027278   0.0000011   0.0000000   0.4622961
   21    0.0000000  -0.0000000  -0.0000056  -0.0001531  -0.0000000
   22   -0.0001070  -0.0000056  -0.0000000  -0.0000000  -0.0001514
   23   -0.0000000  -0.0000056  -0.0000000  -0.0001070   0.0000000
   24   -0.0001531  -0.0000000  -0.0000056   0.0000000  -0.0001071

            21          22          23          24

   21    0.4668192
   22    0.0000000   0.4668109
   23   -0.0000345  -0.0000000   0.4668108
   24   -0.0000000  -0.0000345   0.0000000   0.4668193

          TOTAL MULLIKEN AND LOWDIN ATOMIC POPULATIONS
       ATOM         MULL.POP.    CHARGE          LOW.POP.     CHARGE
    1 C             6.160411   -0.160411         6.109775   -0.109775
    2 C             6.172818   -0.172818         6.103075   -0.103075
    3 C             6.160058   -0.160058         6.109531   -0.109531
    4 C             6.162753   -0.162753         6.096640   -0.096640
    5 C             6.211846   -0.211846         6.124677   -0.124677
    6 C             6.063954   -0.063954         6.024623   -0.024623
    7 C             6.211878   -0.211878         6.124764   -0.124764
    8 C             6.066158   -0.066158         6.025366   -0.025366
    9 C             6.063953   -0.063953         6.024622   -0.024622
   10 C             6.066158   -0.066158         6.025366   -0.025366
   11 C             6.211880   -0.211880         6.124766   -0.124766
   12 C             6.211846   -0.211846         6.124677   -0.124677
   13 C             6.160055   -0.160055         6.109528   -0.109528
   14 C             6.160412   -0.160412         6.109777   -0.109777
   15 H             0.789698    0.210302         0.876295    0.123705
   16 H             0.789647    0.210353         0.876256    0.123744
   17 H             0.783254    0.216746         0.878273    0.121727
   18 H             0.782019    0.217981         0.877397    0.122603
   19 H             0.789647    0.210353         0.876256    0.123744
   20 H             0.789698    0.210302         0.876295    0.123705
   21 H             0.797976    0.202024         0.875513    0.124487
   22 H             0.797954    0.202046         0.875508    0.124492
   23 H             0.797953    0.202047         0.875508    0.124492
   24 H             0.797976    0.202024         0.875513    0.124487

          -------------------------------
          BOND ORDER AND VALENCE ANALYSIS     BOND ORDER THRESHOLD=0.050
          -------------------------------

                   BOND                       BOND                       BOND
  ATOM PAIR DIST  ORDER      ATOM PAIR DIST  ORDER      ATOM PAIR DIST  ORDER
    1   3  2.809  0.098        1   5  1.367  1.655        1  10  1.429  1.214
    1  20  1.086  0.936        2   4  2.802  0.162        2   6  1.398  1.379
    2   9  1.398  1.379        2  18  1.087  0.926        3   7  1.367  1.656
    3   9  1.429  1.212        3  16  1.086  0.936        4   8  1.398  1.377
    4  10  1.398  1.377        4  17  1.087  0.927        5   7  1.425  1.238
    5  22  1.085  0.941        6   8  1.443  1.291        6  13  1.429  1.212
    7  24  1.085  0.941        8  14  1.429  1.214        9  10  1.443  1.291
   11  12  1.425  1.238       11  13  1.367  1.656       11  21  1.085  0.941
   12  14  1.367  1.655       12  23  1.085  0.941       13  14  2.809  0.098
   13  19  1.086  0.936       14  15  1.086  0.936

                       TOTAL       BONDED        FREE
      ATOM            VALENCE     VALENCE     VALENCE
    1 C                 3.882       3.882       0.000
    2 C                 3.915       3.915       0.000
    3 C                 3.882       3.882       0.000
    4 C                 3.915       3.915       0.000
    5 C                 3.865       3.865      -0.000
    6 C                 3.892       3.892      -0.000
    7 C                 3.865       3.865      -0.000
    8 C                 3.892       3.892      -0.000
    9 C                 3.892       3.892      -0.000
   10 C                 3.892       3.892       0.000
   11 C                 3.865       3.865      -0.000
   12 C                 3.865       3.865      -0.000
   13 C                 3.882       3.882       0.000
   14 C                 3.882       3.882       0.000
   15 H                 0.928       0.928       0.000
   16 H                 0.928       0.928      -0.000
   17 H                 0.926       0.926       0.000
   18 H                 0.925       0.925       0.000
   19 H                 0.928       0.928       0.000
   20 H                 0.928       0.928      -0.000
   21 H                 0.934       0.934      -0.000
   22 H                 0.934       0.934      -0.000
   23 H                 0.934       0.934      -0.000
   24 H                 0.934       0.934      -0.000

          ---------------------
          ELECTROSTATIC MOMENTS
          ---------------------

 POINT   1           X           Y           Z (BOHR)    CHARGE
                 0.000000   -0.000000    0.000000       -0.00 (A.U.)
         DX          DY          DZ         /D/  (DEBYE)
     0.000000   -0.000007   -0.025167    0.025167
 ...... END OF PROPERTY EVALUATION ......
 STEP CPU TIME =    17.10 TOTAL CPU TIME =         20.0 (      0.3 MIN)
 TOTAL WALL CLOCK TIME=         19.7 SECONDS, CPU UTILIZATION IS   101.24%
               580000  WORDS OF DYNAMIC MEMORY USED
 EXECUTION OF GAMESS TERMINATED NORMALLY 18:49:28 12-MAY-2024    
 DDI: 263640 bytes (0.3 MB / 0 MWords) used by master data server.

 ----------------------------------------
 CPU timing information for all processes
 ========================================
 0: 19.257 + 0.736 = 19.993
 ----------------------------------------
 ddikick.x: exited gracefully.
----- accounting info -----
Files used on the master node brusel were:
-rw-r--r-- 1 humbel users  295077 May 12 18:49 /scratch/humbel.257465/proj_xm.den
-rw-r--r-- 1 humbel users  116043 May 12 18:49 /scratch/humbel.257465/proj_xm.F05
-rw-r--r-- 1 humbel users 3631920 May 12 18:49 /scratch/humbel.257465/proj_xm.F10
-rw-r--r-- 1 humbel users    4496 May 12 18:49 /scratch/humbel.257465/proj_xm.gus
-rw-r--r-- 1 humbel users    4985 May 12 18:49 /scratch/humbel.257465/proj_xm.orb
-rw-r--r-- 1 humbel users   93222 May 12 18:49 /scratch/humbel.257465/proj_xm.xdat
-rw-r--r-- 1 humbel users     568 May 12 18:49 /scratch/humbel.257465/proj_xm.xmi
-rw-r--r-- 1 humbel users  337244 May 12 18:49 /scratch/humbel.257465/proj_xm.xmo
Sun May 12 06:49:31 PM CEST 2024
0.0u 0.1s 0:23.00 0.8% 0+0k 504+704io 4pf+0w
